+ 1 0 1 tcp 40 ------- 0 0.0 7.0 0 0
- 1 0 1 tcp 40 ------- 0 0.0 7.0 0 0
+ 1 3 1 tcp 40 ------- 0 3.0 5.1 0 1
- 1 3 1 tcp 40 ------- 0 3.0 5.1 0 1
+ 1 8 5 tcp 40 ------- 0 8.0 5.0 0 2
- 1 8 5 tcp 40 ------- 0 8.0 5.0 0 2
r 1.002032 0 1 tcp 40 ------- 0 0.0 7.0 0 0
+ 1.002032 1 4 tcp 40 ------- 0 0.0 7.0 0 0
- 1.002032 1 4 tcp 40 ------- 0 0.0 7.0 0 0
r 1.002032 3 1 tcp 40 ------- 0 3.0 5.1 0 1
+ 1.002032 1 5 tcp 40 ------- 0 3.0 5.1 0 1
- 1.002032 1 5 tcp 40 ------- 0 3.0 5.1 0 1
r 1.002032 8 5 tcp 40 ------- 0 8.0 5.0 0 2
+ 1.002032 5 8 ack 40 ------- 0 5.0 8.0 0 3
- 1.002032 5 8 ack 40 ------- 0 5.0 8.0 0 3
r 1.004064 1 4 tcp 40 ------- 0 0.0 7.0 0 0
+ 1.004064 4 7 tcp 40 ------- 0 0.0 7.0 0 0
- 1.004064 4 7 tcp 40 ------- 0 0.0 7.0 0 0
r 1.004064 1 5 tcp 40 ------- 0 3.0 5.1 0 1
+ 1.004064 5 1 ack 40 ------- 0 5.1 3.0 0 4
- 1.004064 5 1 ack 40 ------- 0 5.1 3.0 0 4
r 1.004064 5 8 ack 40 ------- 0 5.0 8.0 0 3
+ 1.004064 8 5 tcp 1540 ------- 0 8.0 5.0 1 5
- 1.004064 8 5 tcp 1540 ------- 0 8.0 5.0 1 5
+ 1.004064 8 5 tcp 1540 ------- 0 8.0 5.0 2 6
- 1.005296 8 5 tcp 1540 ------- 0 8.0 5.0 2 6
r 1.006096 4 7 tcp 40 ------- 0 0.0 7.0 0 0
+ 1.006096 7 4 ack 40 ------- 0 7.0 0.0 0 7
- 1.006096 7 4 ack 40 ------- 0 7.0 0.0 0 7
r 1.006096 5 1 ack 40 ------- 0 5.1 3.0 0 4
+ 1.006096 1 3 ack 40 ------- 0 5.1 3.0 0 4
- 1.006096 1 3 ack 40 ------- 0 5.1 3.0 0 4
r 1.007296 8 5 tcp 1540 ------- 0 8.0 5.0 1 5
+ 1.007296 5 8 ack 40 ------- 0 5.0 8.0 1 8
- 1.007296 5 8 ack 40 ------- 0 5.0 8.0 1 8
r 1.008128 7 4 ack 40 ------- 0 7.0 0.0 0 7
+ 1.008128 4 1 ack 40 ------- 0 7.0 0.0 0 7
- 1.008128 4 1 ack 40 ------- 0 7.0 0.0 0 7
r 1.008128 1 3 ack 40 ------- 0 5.1 3.0 0 4
+ 1.008128 3 1 tcp 1540 ------- 0 3.0 5.1 1 9
- 1.008128 3 1 tcp 1540 ------- 0 3.0 5.1 1 9
+ 1.008128 3 1 tcp 1540 ------- 0 3.0 5.1 2 10
r 1.008528 8 5 tcp 1540 ------- 0 8.0 5.0 2 6
+ 1.008528 5 8 ack 40 ------- 0 5.0 8.0 2 11
- 1.008528 5 8 ack 40 ------- 0 5.0 8.0 2 11
r 1.009328 5 8 ack 40 ------- 0 5.0 8.0 1 8
+ 1.009328 8 5 tcp 1540 ------- 0 8.0 5.0 3 12
- 1.009328 8 5 tcp 1540 ------- 0 8.0 5.0 3 12
+ 1.009328 8 5 tcp 1540 ------- 0 8.0 5.0 4 13
- 1.00936 3 1 tcp 1540 ------- 0 3.0 5.1 2 10
r 1.01016 4 1 ack 40 ------- 0 7.0 0.0 0 7
+ 1.01016 1 0 ack 40 ------- 0 7.0 0.0 0 7
- 1.01016 1 0 ack 40 ------- 0 7.0 0.0 0 7
r 1.01056 5 8 ack 40 ------- 0 5.0 8.0 2 11
+ 1.01056 8 5 tcp 1540 ------- 0 8.0 5.0 5 14
+ 1.01056 8 5 tcp 1540 ------- 0 8.0 5.0 6 15
- 1.01056 8 5 tcp 1540 ------- 0 8.0 5.0 4 13
r 1.01136 3 1 tcp 1540 ------- 0 3.0 5.1 1 9
+ 1.01136 1 5 tcp 1540 ------- 0 3.0 5.1 1 9
- 1.01136 1 5 tcp 1540 ------- 0 3.0 5.1 1 9
- 1.011792 8 5 tcp 1540 ------- 0 8.0 5.0 5 14
r 1.012192 1 0 ack 40 ------- 0 7.0 0.0 0 7
+ 1.012192 0 1 tcp 1540 ------- 0 0.0 7.0 1 16
- 1.012192 0 1 tcp 1540 ------- 0 0.0 7.0 1 16
+ 1.012192 0 1 tcp 1540 ------- 0 0.0 7.0 2 17
r 1.01256 8 5 tcp 1540 ------- 0 8.0 5.0 3 12
+ 1.01256 5 8 ack 40 ------- 0 5.0 8.0 3 18
- 1.01256 5 8 ack 40 ------- 0 5.0 8.0 3 18
r 1.012592 3 1 tcp 1540 ------- 0 3.0 5.1 2 10
+ 1.012592 1 5 tcp 1540 ------- 0 3.0 5.1 2 10
- 1.012592 1 5 tcp 1540 ------- 0 3.0 5.1 2 10
- 1.013024 8 5 tcp 1540 ------- 0 8.0 5.0 6 15
- 1.013424 0 1 tcp 1540 ------- 0 0.0 7.0 2 17
r 1.013792 8 5 tcp 1540 ------- 0 8.0 5.0 4 13
+ 1.013792 5 8 ack 40 ------- 0 5.0 8.0 4 19
- 1.013792 5 8 ack 40 ------- 0 5.0 8.0 4 19
r 1.014592 1 5 tcp 1540 ------- 0 3.0 5.1 1 9
+ 1.014592 5 1 ack 40 ------- 0 5.1 3.0 1 20
- 1.014592 5 1 ack 40 ------- 0 5.1 3.0 1 20
r 1.014592 5 8 ack 40 ------- 0 5.0 8.0 3 18
+ 1.014592 8 5 tcp 1540 ------- 0 8.0 5.0 7 21
- 1.014592 8 5 tcp 1540 ------- 0 8.0 5.0 7 21
+ 1.014592 8 5 tcp 1540 ------- 0 8.0 5.0 8 22
r 1.015024 8 5 tcp 1540 ------- 0 8.0 5.0 5 14
+ 1.015024 5 8 ack 40 ------- 0 5.0 8.0 5 23
- 1.015024 5 8 ack 40 ------- 0 5.0 8.0 5 23
r 1.015424 0 1 tcp 1540 ------- 0 0.0 7.0 1 16
+ 1.015424 1 4 tcp 1540 ------- 0 0.0 7.0 1 16
- 1.015424 1 4 tcp 1540 ------- 0 0.0 7.0 1 16
r 1.015824 1 5 tcp 1540 ------- 0 3.0 5.1 2 10
+ 1.015824 5 1 ack 40 ------- 0 5.1 3.0 2 24
- 1.015824 5 1 ack 40 ------- 0 5.1 3.0 2 24
r 1.015824 5 8 ack 40 ------- 0 5.0 8.0 4 19
+ 1.015824 8 5 tcp 1540 ------- 0 8.0 5.0 9 25
+ 1.015824 8 5 tcp 1540 ------- 0 8.0 5.0 10 26
- 1.015824 8 5 tcp 1540 ------- 0 8.0 5.0 8 22
r 1.016256 8 5 tcp 1540 ------- 0 8.0 5.0 6 15
+ 1.016256 5 8 ack 40 ------- 0 5.0 8.0 6 27
- 1.016256 5 8 ack 40 ------- 0 5.0 8.0 6 27
r 1.016624 5 1 ack 40 ------- 0 5.1 3.0 1 20
+ 1.016624 1 3 ack 40 ------- 0 5.1 3.0 1 20
- 1.016624 1 3 ack 40 ------- 0 5.1 3.0 1 20
r 1.016656 0 1 tcp 1540 ------- 0 0.0 7.0 2 17
+ 1.016656 1 4 tcp 1540 ------- 0 0.0 7.0 2 17
- 1.016656 1 4 tcp 1540 ------- 0 0.0 7.0 2 17
r 1.017056 5 8 ack 40 ------- 0 5.0 8.0 5 23
+ 1.017056 8 5 tcp 1540 ------- 0 8.0 5.0 11 28
+ 1.017056 8 5 tcp 1540 ------- 0 8.0 5.0 12 29
- 1.017056 8 5 tcp 1540 ------- 0 8.0 5.0 9 25
r 1.017824 8 5 tcp 1540 ------- 0 8.0 5.0 7 21
+ 1.017824 5 8 ack 40 ------- 0 5.0 8.0 7 30
- 1.017824 5 8 ack 40 ------- 0 5.0 8.0 7 30
r 1.017856 5 1 ack 40 ------- 0 5.1 3.0 2 24
+ 1.017856 1 3 ack 40 ------- 0 5.1 3.0 2 24
- 1.017856 1 3 ack 40 ------- 0 5.1 3.0 2 24
r 1.018288 5 8 ack 40 ------- 0 5.0 8.0 6 27
+ 1.018288 8 5 tcp 1540 ------- 0 8.0 5.0 13 31
+ 1.018288 8 5 tcp 1540 ------- 0 8.0 5.0 14 32
- 1.018288 8 5 tcp 1540 ------- 0 8.0 5.0 10 26
r 1.018656 1 4 tcp 1540 ------- 0 0.0 7.0 1 16
+ 1.018656 4 7 tcp 1540 ------- 0 0.0 7.0 1 16
- 1.018656 4 7 tcp 1540 ------- 0 0.0 7.0 1 16
r 1.018656 1 3 ack 40 ------- 0 5.1 3.0 1 20
+ 1.018656 3 1 tcp 1540 ------- 0 3.0 5.1 3 33
- 1.018656 3 1 tcp 1540 ------- 0 3.0 5.1 3 33
+ 1.018656 3 1 tcp 1540 ------- 0 3.0 5.1 4 34
r 1.019056 8 5 tcp 1540 ------- 0 8.0 5.0 8 22
+ 1.019056 5 8 ack 40 ------- 0 5.0 8.0 8 35
- 1.019056 5 8 ack 40 ------- 0 5.0 8.0 8 35
- 1.01952 8 5 tcp 1540 ------- 0 8.0 5.0 11 28
r 1.019856 5 8 ack 40 ------- 0 5.0 8.0 7 30
+ 1.019856 8 5 tcp 1540 ------- 0 8.0 5.0 15 36
+ 1.019856 8 5 tcp 1540 ------- 0 8.0 5.0 16 37
r 1.019888 1 4 tcp 1540 ------- 0 0.0 7.0 2 17
+ 1.019888 4 7 tcp 1540 ------- 0 0.0 7.0 2 17
r 1.019888 1 3 ack 40 ------- 0 5.1 3.0 2 24
+ 1.019888 3 1 tcp 1540 ------- 0 3.0 5.1 5 38
+ 1.019888 3 1 tcp 1540 ------- 0 3.0 5.1 6 39
- 1.019888 4 7 tcp 1540 ------- 0 0.0 7.0 2 17
- 1.019888 3 1 tcp 1540 ------- 0 3.0 5.1 4 34
r 1.020288 8 5 tcp 1540 ------- 0 8.0 5.0 9 25
+ 1.020288 5 8 ack 40 ------- 0 5.0 8.0 9 40
- 1.020288 5 8 ack 40 ------- 0 5.0 8.0 9 40
- 1.020752 8 5 tcp 1540 ------- 0 8.0 5.0 12 29
r 1.021088 5 8 ack 40 ------- 0 5.0 8.0 8 35
+ 1.021088 8 5 tcp 1540 ------- 0 8.0 5.0 17 41
+ 1.021088 8 5 tcp 1540 ------- 0 8.0 5.0 18 42
- 1.02112 3 1 tcp 1540 ------- 0 3.0 5.1 5 38
r 1.02152 8 5 tcp 1540 ------- 0 8.0 5.0 10 26
+ 1.02152 5 8 ack 40 ------- 0 5.0 8.0 10 43
- 1.02152 5 8 ack 40 ------- 0 5.0 8.0 10 43
r 1.021888 4 7 tcp 1540 ------- 0 0.0 7.0 1 16
+ 1.021888 7 4 ack 40 ------- 0 7.0 0.0 1 44
- 1.021888 7 4 ack 40 ------- 0 7.0 0.0 1 44
r 1.021888 3 1 tcp 1540 ------- 0 3.0 5.1 3 33
+ 1.021888 1 5 tcp 1540 ------- 0 3.0 5.1 3 33
- 1.021888 1 5 tcp 1540 ------- 0 3.0 5.1 3 33
- 1.021984 8 5 tcp 1540 ------- 0 8.0 5.0 13 31
r 1.02232 5 8 ack 40 ------- 0 5.0 8.0 9 40
+ 1.02232 8 5 tcp 1540 ------- 0 8.0 5.0 19 45
+ 1.02232 8 5 tcp 1540 ------- 0 8.0 5.0 20 46
- 1.022352 3 1 tcp 1540 ------- 0 3.0 5.1 6 39
r 1.022752 8 5 tcp 1540 ------- 0 8.0 5.0 11 28
+ 1.022752 5 8 ack 40 ------- 0 5.0 8.0 11 47
- 1.022752 5 8 ack 40 ------- 0 5.0 8.0 11 47
r 1.02312 4 7 tcp 1540 ------- 0 0.0 7.0 2 17
+ 1.02312 7 4 ack 40 ------- 0 7.0 0.0 2 48
- 1.02312 7 4 ack 40 ------- 0 7.0 0.0 2 48
r 1.02312 3 1 tcp 1540 ------- 0 3.0 5.1 4 34
+ 1.02312 1 5 tcp 1540 ------- 0 3.0 5.1 4 34
- 1.02312 1 5 tcp 1540 ------- 0 3.0 5.1 4 34
- 1.023216 8 5 tcp 1540 ------- 0 8.0 5.0 14 32
r 1.023552 5 8 ack 40 ------- 0 5.0 8.0 10 43
+ 1.023552 8 5 tcp 1540 ------- 0 8.0 5.0 21 49
+ 1.023552 8 5 tcp 1540 ------- 0 8.0 5.0 22 50
r 1.02392 7 4 ack 40 ------- 0 7.0 0.0 1 44
+ 1.02392 4 1 ack 40 ------- 0 7.0 0.0 1 44
- 1.02392 4 1 ack 40 ------- 0 7.0 0.0 1 44
r 1.023984 8 5 tcp 1540 ------- 0 8.0 5.0 12 29
+ 1.023984 5 8 ack 40 ------- 0 5.0 8.0 12 51
- 1.023984 5 8 ack 40 ------- 0 5.0 8.0 12 51
r 1.024352 3 1 tcp 1540 ------- 0 3.0 5.1 5 38
+ 1.024352 1 5 tcp 1540 ------- 0 3.0 5.1 5 38
- 1.024352 1 5 tcp 1540 ------- 0 3.0 5.1 5 38
- 1.024448 8 5 tcp 1540 ------- 0 8.0 5.0 15 36
r 1.024784 5 8 ack 40 ------- 0 5.0 8.0 11 47
+ 1.024784 8 5 tcp 1540 ------- 0 8.0 5.0 23 52
+ 1.024784 8 5 tcp 1540 ------- 0 8.0 5.0 24 53
r 1.02512 1 5 tcp 1540 ------- 0 3.0 5.1 3 33
+ 1.02512 5 1 ack 40 ------- 0 5.1 3.0 3 54
- 1.02512 5 1 ack 40 ------- 0 5.1 3.0 3 54
r 1.025152 7 4 ack 40 ------- 0 7.0 0.0 2 48
+ 1.025152 4 1 ack 40 ------- 0 7.0 0.0 2 48
- 1.025152 4 1 ack 40 ------- 0 7.0 0.0 2 48
r 1.025216 8 5 tcp 1540 ------- 0 8.0 5.0 13 31
+ 1.025216 5 8 ack 40 ------- 0 5.0 8.0 13 55
- 1.025216 5 8 ack 40 ------- 0 5.0 8.0 13 55
r 1.025584 3 1 tcp 1540 ------- 0 3.0 5.1 6 39
+ 1.025584 1 5 tcp 1540 ------- 0 3.0 5.1 6 39
- 1.025584 1 5 tcp 1540 ------- 0 3.0 5.1 6 39
- 1.02568 8 5 tcp 1540 ------- 0 8.0 5.0 16 37
r 1.025952 4 1 ack 40 ------- 0 7.0 0.0 1 44
+ 1.025952 1 0 ack 40 ------- 0 7.0 0.0 1 44
- 1.025952 1 0 ack 40 ------- 0 7.0 0.0 1 44
r 1.026016 5 8 ack 40 ------- 0 5.0 8.0 12 51
+ 1.026016 8 5 tcp 1540 ------- 0 8.0 5.0 25 56
+ 1.026016 8 5 tcp 1540 ------- 0 8.0 5.0 26 57
r 1.026352 1 5 tcp 1540 ------- 0 3.0 5.1 4 34
+ 1.026352 5 1 ack 40 ------- 0 5.1 3.0 4 58
- 1.026352 5 1 ack 40 ------- 0 5.1 3.0 4 58
r 1.026448 8 5 tcp 1540 ------- 0 8.0 5.0 14 32
+ 1.026448 5 8 ack 40 ------- 0 5.0 8.0 14 59
- 1.026448 5 8 ack 40 ------- 0 5.0 8.0 14 59
- 1.026912 8 5 tcp 1540 ------- 0 8.0 5.0 17 41
r 1.027152 5 1 ack 40 ------- 0 5.1 3.0 3 54
+ 1.027152 1 3 ack 40 ------- 0 5.1 3.0 3 54
- 1.027152 1 3 ack 40 ------- 0 5.1 3.0 3 54
r 1.027184 4 1 ack 40 ------- 0 7.0 0.0 2 48
+ 1.027184 1 0 ack 40 ------- 0 7.0 0.0 2 48
- 1.027184 1 0 ack 40 ------- 0 7.0 0.0 2 48
r 1.027248 5 8 ack 40 ------- 0 5.0 8.0 13 55
+ 1.027248 8 5 tcp 1540 ------- 0 8.0 5.0 27 60
+ 1.027248 8 5 tcp 1540 ------- 0 8.0 5.0 28 61
r 1.027584 1 5 tcp 1540 ------- 0 3.0 5.1 5 38
+ 1.027584 5 1 ack 40 ------- 0 5.1 3.0 5 62
- 1.027584 5 1 ack 40 ------- 0 5.1 3.0 5 62
r 1.02768 8 5 tcp 1540 ------- 0 8.0 5.0 15 36
+ 1.02768 5 8 ack 40 ------- 0 5.0 8.0 15 63
- 1.02768 5 8 ack 40 ------- 0 5.0 8.0 15 63
r 1.027984 1 0 ack 40 ------- 0 7.0 0.0 1 44
+ 1.027984 0 1 tcp 1540 ------- 0 0.0 7.0 3 64
- 1.027984 0 1 tcp 1540 ------- 0 0.0 7.0 3 64
+ 1.027984 0 1 tcp 1540 ------- 0 0.0 7.0 4 65
- 1.028144 8 5 tcp 1540 ------- 0 8.0 5.0 18 42
r 1.028384 5 1 ack 40 ------- 0 5.1 3.0 4 58
+ 1.028384 1 3 ack 40 ------- 0 5.1 3.0 4 58
- 1.028384 1 3 ack 40 ------- 0 5.1 3.0 4 58
r 1.02848 5 8 ack 40 ------- 0 5.0 8.0 14 59
+ 1.02848 8 5 tcp 1540 ------- 0 8.0 5.0 29 66
+ 1.02848 8 5 tcp 1540 ------- 0 8.0 5.0 30 67
r 1.028816 1 5 tcp 1540 ------- 0 3.0 5.1 6 39
+ 1.028816 5 1 ack 40 ------- 0 5.1 3.0 6 68
- 1.028816 5 1 ack 40 ------- 0 5.1 3.0 6 68
r 1.028912 8 5 tcp 1540 ------- 0 8.0 5.0 16 37
+ 1.028912 5 8 ack 40 ------- 0 5.0 8.0 16 69
- 1.028912 5 8 ack 40 ------- 0 5.0 8.0 16 69
r 1.029184 1 3 ack 40 ------- 0 5.1 3.0 3 54
+ 1.029184 3 1 tcp 1540 ------- 0 3.0 5.1 7 70
- 1.029184 3 1 tcp 1540 ------- 0 3.0 5.1 7 70
+ 1.029184 3 1 tcp 1540 ------- 0 3.0 5.1 8 71
r 1.029216 1 0 ack 40 ------- 0 7.0 0.0 2 48
+ 1.029216 0 1 tcp 1540 ------- 0 0.0 7.0 5 72
+ 1.029216 0 1 tcp 1540 ------- 0 0.0 7.0 6 73
- 1.029216 0 1 tcp 1540 ------- 0 0.0 7.0 4 65
- 1.029376 8 5 tcp 1540 ------- 0 8.0 5.0 19 45
r 1.029616 5 1 ack 40 ------- 0 5.1 3.0 5 62
+ 1.029616 1 3 ack 40 ------- 0 5.1 3.0 5 62
- 1.029616 1 3 ack 40 ------- 0 5.1 3.0 5 62
r 1.029712 5 8 ack 40 ------- 0 5.0 8.0 15 63
+ 1.029712 8 5 tcp 1540 ------- 0 8.0 5.0 31 74
+ 1.029712 8 5 tcp 1540 ------- 0 8.0 5.0 32 75
r 1.030144 8 5 tcp 1540 ------- 0 8.0 5.0 17 41
+ 1.030144 5 8 ack 40 ------- 0 5.0 8.0 17 76
- 1.030144 5 8 ack 40 ------- 0 5.0 8.0 17 76
r 1.030416 1 3 ack 40 ------- 0 5.1 3.0 4 58
+ 1.030416 3 1 tcp 1540 ------- 0 3.0 5.1 9 77
+ 1.030416 3 1 tcp 1540 ------- 0 3.0 5.1 10 78
- 1.030416 3 1 tcp 1540 ------- 0 3.0 5.1 8 71
- 1.030448 0 1 tcp 1540 ------- 0 0.0 7.0 5 72
- 1.030608 8 5 tcp 1540 ------- 0 8.0 5.0 20 46
r 1.030848 5 1 ack 40 ------- 0 5.1 3.0 6 68
+ 1.030848 1 3 ack 40 ------- 0 5.1 3.0 6 68
- 1.030848 1 3 ack 40 ------- 0 5.1 3.0 6 68
r 1.030944 5 8 ack 40 ------- 0 5.0 8.0 16 69
+ 1.030944 8 5 tcp 1540 ------- 0 8.0 5.0 33 79
+ 1.030944 8 5 tcp 1540 ------- 0 8.0 5.0 34 80
r 1.031216 0 1 tcp 1540 ------- 0 0.0 7.0 3 64
+ 1.031216 1 4 tcp 1540 ------- 0 0.0 7.0 3 64
- 1.031216 1 4 tcp 1540 ------- 0 0.0 7.0 3 64
r 1.031376 8 5 tcp 1540 ------- 0 8.0 5.0 18 42
+ 1.031376 5 8 ack 40 ------- 0 5.0 8.0 18 81
- 1.031376 5 8 ack 40 ------- 0 5.0 8.0 18 81
r 1.031648 1 3 ack 40 ------- 0 5.1 3.0 5 62
+ 1.031648 3 1 tcp 1540 ------- 0 3.0 5.1 11 82
+ 1.031648 3 1 tcp 1540 ------- 0 3.0 5.1 12 83
- 1.031648 3 1 tcp 1540 ------- 0 3.0 5.1 9 77
- 1.03168 0 1 tcp 1540 ------- 0 0.0 7.0 6 73
- 1.03184 8 5 tcp 1540 ------- 0 8.0 5.0 21 49
r 1.032176 5 8 ack 40 ------- 0 5.0 8.0 17 76
+ 1.032176 8 5 tcp 1540 ------- 0 8.0 5.0 35 84
+ 1.032176 8 5 tcp 1540 ------- 0 8.0 5.0 36 85
r 1.032416 3 1 tcp 1540 ------- 0 3.0 5.1 7 70
+ 1.032416 1 5 tcp 1540 ------- 0 3.0 5.1 7 70
- 1.032416 1 5 tcp 1540 ------- 0 3.0 5.1 7 70
r 1.032448 0 1 tcp 1540 ------- 0 0.0 7.0 4 65
+ 1.032448 1 4 tcp 1540 ------- 0 0.0 7.0 4 65
- 1.032448 1 4 tcp 1540 ------- 0 0.0 7.0 4 65
r 1.032608 8 5 tcp 1540 ------- 0 8.0 5.0 19 45
+ 1.032608 5 8 ack 40 ------- 0 5.0 8.0 19 86
- 1.032608 5 8 ack 40 ------- 0 5.0 8.0 19 86
r 1.03288 1 3 ack 40 ------- 0 5.1 3.0 6 68
+ 1.03288 3 1 tcp 1540 ------- 0 3.0 5.1 13 87
+ 1.03288 3 1 tcp 1540 ------- 0 3.0 5.1 14 88
- 1.03288 3 1 tcp 1540 ------- 0 3.0 5.1 10 78
- 1.033072 8 5 tcp 1540 ------- 0 8.0 5.0 22 50
r 1.033408 5 8 ack 40 ------- 0 5.0 8.0 18 81
+ 1.033408 8 5 tcp 1540 ------- 0 8.0 5.0 37 89
+ 1.033408 8 5 tcp 1540 ------- 0 8.0 5.0 38 90
r 1.033648 3 1 tcp 1540 ------- 0 3.0 5.1 8 71
+ 1.033648 1 5 tcp 1540 ------- 0 3.0 5.1 8 71
- 1.033648 1 5 tcp 1540 ------- 0 3.0 5.1 8 71
r 1.03368 0 1 tcp 1540 ------- 0 0.0 7.0 5 72
+ 1.03368 1 4 tcp 1540 ------- 0 0.0 7.0 5 72
- 1.03368 1 4 tcp 1540 ------- 0 0.0 7.0 5 72
r 1.03384 8 5 tcp 1540 ------- 0 8.0 5.0 20 46
+ 1.03384 5 8 ack 40 ------- 0 5.0 8.0 20 91
- 1.03384 5 8 ack 40 ------- 0 5.0 8.0 20 91
- 1.034112 3 1 tcp 1540 ------- 0 3.0 5.1 11 82
- 1.034304 8 5 tcp 1540 ------- 0 8.0 5.0 23 52
r 1.034448 1 4 tcp 1540 ------- 0 0.0 7.0 3 64
+ 1.034448 4 7 tcp 1540 ------- 0 0.0 7.0 3 64
- 1.034448 4 7 tcp 1540 ------- 0 0.0 7.0 3 64
r 1.03464 5 8 ack 40 ------- 0 5.0 8.0 19 86
+ 1.03464 8 5 tcp 1540 ------- 0 8.0 5.0 39 92
r 1.03488 3 1 tcp 1540 ------- 0 3.0 5.1 9 77
+ 1.03488 1 5 tcp 1540 ------- 0 3.0 5.1 9 77
- 1.03488 1 5 tcp 1540 ------- 0 3.0 5.1 9 77
r 1.034912 0 1 tcp 1540 ------- 0 0.0 7.0 6 73
+ 1.034912 1 4 tcp 1540 ------- 0 0.0 7.0 6 73
- 1.034912 1 4 tcp 1540 ------- 0 0.0 7.0 6 73
r 1.035072 8 5 tcp 1540 ------- 0 8.0 5.0 21 49
+ 1.035072 5 8 ack 40 ------- 0 5.0 8.0 21 93
- 1.035072 5 8 ack 40 ------- 0 5.0 8.0 21 93
- 1.035344 3 1 tcp 1540 ------- 0 3.0 5.1 12 83
- 1.035536 8 5 tcp 1540 ------- 0 8.0 5.0 24 53
r 1.035648 1 5 tcp 1540 ------- 0 3.0 5.1 7 70
+ 1.035648 5 1 ack 40 ------- 0 5.1 3.0 7 94
- 1.035648 5 1 ack 40 ------- 0 5.1 3.0 7 94
r 1.03568 1 4 tcp 1540 ------- 0 0.0 7.0 4 65
+ 1.03568 4 7 tcp 1540 ------- 0 0.0 7.0 4 65
- 1.03568 4 7 tcp 1540 ------- 0 0.0 7.0 4 65
r 1.035872 5 8 ack 40 ------- 0 5.0 8.0 20 91
+ 1.035872 8 5 tcp 1540 ------- 0 8.0 5.0 40 95
r 1.036112 3 1 tcp 1540 ------- 0 3.0 5.1 10 78
+ 1.036112 1 5 tcp 1540 ------- 0 3.0 5.1 10 78
- 1.036112 1 5 tcp 1540 ------- 0 3.0 5.1 10 78
r 1.036304 8 5 tcp 1540 ------- 0 8.0 5.0 22 50
+ 1.036304 5 8 ack 40 ------- 0 5.0 8.0 22 96
- 1.036304 5 8 ack 40 ------- 0 5.0 8.0 22 96
- 1.036576 3 1 tcp 1540 ------- 0 3.0 5.1 13 87
- 1.036768 8 5 tcp 1540 ------- 0 8.0 5.0 25 56
r 1.03688 1 5 tcp 1540 ------- 0 3.0 5.1 8 71
+ 1.03688 5 1 ack 40 ------- 0 5.1 3.0 8 97
- 1.03688 5 1 ack 40 ------- 0 5.1 3.0 8 97
r 1.036912 1 4 tcp 1540 ------- 0 0.0 7.0 5 72
+ 1.036912 4 7 tcp 1540 ------- 0 0.0 7.0 5 72
- 1.036912 4 7 tcp 1540 ------- 0 0.0 7.0 5 72
r 1.037104 5 8 ack 40 ------- 0 5.0 8.0 21 93
+ 1.037104 8 5 tcp 1540 ------- 0 8.0 5.0 41 98
r 1.037344 3 1 tcp 1540 ------- 0 3.0 5.1 11 82
+ 1.037344 1 5 tcp 1540 ------- 0 3.0 5.1 11 82
- 1.037344 1 5 tcp 1540 ------- 0 3.0 5.1 11 82
r 1.037536 8 5 tcp 1540 ------- 0 8.0 5.0 23 52
+ 1.037536 5 8 ack 40 ------- 0 5.0 8.0 23 99
- 1.037536 5 8 ack 40 ------- 0 5.0 8.0 23 99
r 1.03768 4 7 tcp 1540 ------- 0 0.0 7.0 3 64
+ 1.03768 7 4 ack 40 ------- 0 7.0 0.0 3 100
- 1.03768 7 4 ack 40 ------- 0 7.0 0.0 3 100
r 1.03768 5 1 ack 40 ------- 0 5.1 3.0 7 94
+ 1.03768 1 3 ack 40 ------- 0 5.1 3.0 7 94
- 1.03768 1 3 ack 40 ------- 0 5.1 3.0 7 94
- 1.037808 3 1 tcp 1540 ------- 0 3.0 5.1 14 88
- 1.038 8 5 tcp 1540 ------- 0 8.0 5.0 26 57
r 1.038112 1 5 tcp 1540 ------- 0 3.0 5.1 9 77
+ 1.038112 5 1 ack 40 ------- 0 5.1 3.0 9 101
- 1.038112 5 1 ack 40 ------- 0 5.1 3.0 9 101
r 1.038144 1 4 tcp 1540 ------- 0 0.0 7.0 6 73
+ 1.038144 4 7 tcp 1540 ------- 0 0.0 7.0 6 73
- 1.038144 4 7 tcp 1540 ------- 0 0.0 7.0 6 73
r 1.038336 5 8 ack 40 ------- 0 5.0 8.0 22 96
+ 1.038336 8 5 tcp 1540 ------- 0 8.0 5.0 42 102
r 1.038576 3 1 tcp 1540 ------- 0 3.0 5.1 12 83
+ 1.038576 1 5 tcp 1540 ------- 0 3.0 5.1 12 83
- 1.038576 1 5 tcp 1540 ------- 0 3.0 5.1 12 83
r 1.038768 8 5 tcp 1540 ------- 0 8.0 5.0 24 53
+ 1.038768 5 8 ack 40 ------- 0 5.0 8.0 24 103
- 1.038768 5 8 ack 40 ------- 0 5.0 8.0 24 103
r 1.038912 4 7 tcp 1540 ------- 0 0.0 7.0 4 65
+ 1.038912 7 4 ack 40 ------- 0 7.0 0.0 4 104
- 1.038912 7 4 ack 40 ------- 0 7.0 0.0 4 104
r 1.038912 5 1 ack 40 ------- 0 5.1 3.0 8 97
+ 1.038912 1 3 ack 40 ------- 0 5.1 3.0 8 97
- 1.038912 1 3 ack 40 ------- 0 5.1 3.0 8 97
- 1.039232 8 5 tcp 1540 ------- 0 8.0 5.0 27 60
r 1.039344 1 5 tcp 1540 ------- 0 3.0 5.1 10 78
+ 1.039344 5 1 ack 40 ------- 0 5.1 3.0 10 105
- 1.039344 5 1 ack 40 ------- 0 5.1 3.0 10 105
r 1.039568 5 8 ack 40 ------- 0 5.0 8.0 23 99
+ 1.039568 8 5 tcp 1540 ------- 0 8.0 5.0 43 106
r 1.039712 7 4 ack 40 ------- 0 7.0 0.0 3 100
+ 1.039712 4 1 ack 40 ------- 0 7.0 0.0 3 100
- 1.039712 4 1 ack 40 ------- 0 7.0 0.0 3 100
r 1.039712 1 3 ack 40 ------- 0 5.1 3.0 7 94
+ 1.039712 3 1 tcp 1540 ------- 0 3.0 5.1 15 107
- 1.039712 3 1 tcp 1540 ------- 0 3.0 5.1 15 107
+ 1.039712 3 1 tcp 1540 ------- 0 3.0 5.1 16 108
r 1.039808 3 1 tcp 1540 ------- 0 3.0 5.1 13 87
+ 1.039808 1 5 tcp 1540 ------- 0 3.0 5.1 13 87
- 1.039808 1 5 tcp 1540 ------- 0 3.0 5.1 13 87
r 1.04 8 5 tcp 1540 ------- 0 8.0 5.0 25 56
+ 1.04 5 8 ack 40 ------- 0 5.0 8.0 25 109
- 1.04 5 8 ack 40 ------- 0 5.0 8.0 25 109
r 1.040144 4 7 tcp 1540 ------- 0 0.0 7.0 5 72
+ 1.040144 7 4 ack 40 ------- 0 7.0 0.0 5 110
- 1.040144 7 4 ack 40 ------- 0 7.0 0.0 5 110
r 1.040144 5 1 ack 40 ------- 0 5.1 3.0 9 101
+ 1.040144 1 3 ack 40 ------- 0 5.1 3.0 9 101
- 1.040144 1 3 ack 40 ------- 0 5.1 3.0 9 101
- 1.040464 8 5 tcp 1540 ------- 0 8.0 5.0 28 61
r 1.040576 1 5 tcp 1540 ------- 0 3.0 5.1 11 82
+ 1.040576 5 1 ack 40 ------- 0 5.1 3.0 11 111
- 1.040576 5 1 ack 40 ------- 0 5.1 3.0 11 111
r 1.0408 5 8 ack 40 ------- 0 5.0 8.0 24 103
+ 1.0408 8 5 tcp 1540 ------- 0 8.0 5.0 44 112
r 1.040944 7 4 ack 40 ------- 0 7.0 0.0 4 104
+ 1.040944 4 1 ack 40 ------- 0 7.0 0.0 4 104
- 1.040944 4 1 ack 40 ------- 0 7.0 0.0 4 104
r 1.040944 1 3 ack 40 ------- 0 5.1 3.0 8 97
+ 1.040944 3 1 tcp 1540 ------- 0 3.0 5.1 17 113
+ 1.040944 3 1 tcp 1540 ------- 0 3.0 5.1 18 114
- 1.040944 3 1 tcp 1540 ------- 0 3.0 5.1 16 108
r 1.04104 3 1 tcp 1540 ------- 0 3.0 5.1 14 88
+ 1.04104 1 5 tcp 1540 ------- 0 3.0 5.1 14 88
- 1.04104 1 5 tcp 1540 ------- 0 3.0 5.1 14 88
r 1.041232 8 5 tcp 1540 ------- 0 8.0 5.0 26 57
+ 1.041232 5 8 ack 40 ------- 0 5.0 8.0 26 115
- 1.041232 5 8 ack 40 ------- 0 5.0 8.0 26 115
r 1.041376 4 7 tcp 1540 ------- 0 0.0 7.0 6 73
+ 1.041376 7 4 ack 40 ------- 0 7.0 0.0 6 116
- 1.041376 7 4 ack 40 ------- 0 7.0 0.0 6 116
r 1.041376 5 1 ack 40 ------- 0 5.1 3.0 10 105
+ 1.041376 1 3 ack 40 ------- 0 5.1 3.0 10 105
- 1.041376 1 3 ack 40 ------- 0 5.1 3.0 10 105
- 1.041696 8 5 tcp 1540 ------- 0 8.0 5.0 29 66
r 1.041744 4 1 ack 40 ------- 0 7.0 0.0 3 100
+ 1.041744 1 0 ack 40 ------- 0 7.0 0.0 3 100
- 1.041744 1 0 ack 40 ------- 0 7.0 0.0 3 100
r 1.041808 1 5 tcp 1540 ------- 0 3.0 5.1 12 83
+ 1.041808 5 1 ack 40 ------- 0 5.1 3.0 12 117
- 1.041808 5 1 ack 40 ------- 0 5.1 3.0 12 117
r 1.042032 5 8 ack 40 ------- 0 5.0 8.0 25 109
+ 1.042032 8 5 tcp 1540 ------- 0 8.0 5.0 45 118
r 1.042176 7 4 ack 40 ------- 0 7.0 0.0 5 110
+ 1.042176 4 1 ack 40 ------- 0 7.0 0.0 5 110
- 1.042176 4 1 ack 40 ------- 0 7.0 0.0 5 110
r 1.042176 1 3 ack 40 ------- 0 5.1 3.0 9 101
+ 1.042176 3 1 tcp 1540 ------- 0 3.0 5.1 19 119
+ 1.042176 3 1 tcp 1540 ------- 0 3.0 5.1 20 120
- 1.042176 3 1 tcp 1540 ------- 0 3.0 5.1 17 113
r 1.042464 8 5 tcp 1540 ------- 0 8.0 5.0 27 60
+ 1.042464 5 8 ack 40 ------- 0 5.0 8.0 27 121
- 1.042464 5 8 ack 40 ------- 0 5.0 8.0 27 121
r 1.042608 5 1 ack 40 ------- 0 5.1 3.0 11 111
+ 1.042608 1 3 ack 40 ------- 0 5.1 3.0 11 111
- 1.042608 1 3 ack 40 ------- 0 5.1 3.0 11 111
- 1.042928 8 5 tcp 1540 ------- 0 8.0 5.0 30 67
r 1.042944 3 1 tcp 1540 ------- 0 3.0 5.1 15 107
+ 1.042944 1 5 tcp 1540 ------- 0 3.0 5.1 15 107
- 1.042944 1 5 tcp 1540 ------- 0 3.0 5.1 15 107
r 1.042976 4 1 ack 40 ------- 0 7.0 0.0 4 104
+ 1.042976 1 0 ack 40 ------- 0 7.0 0.0 4 104
- 1.042976 1 0 ack 40 ------- 0 7.0 0.0 4 104
r 1.04304 1 5 tcp 1540 ------- 0 3.0 5.1 13 87
+ 1.04304 5 1 ack 40 ------- 0 5.1 3.0 13 122
- 1.04304 5 1 ack 40 ------- 0 5.1 3.0 13 122
r 1.043264 5 8 ack 40 ------- 0 5.0 8.0 26 115
+ 1.043264 8 5 tcp 1540 ------- 0 8.0 5.0 46 123
r 1.043408 7 4 ack 40 ------- 0 7.0 0.0 6 116
+ 1.043408 4 1 ack 40 ------- 0 7.0 0.0 6 116
- 1.043408 4 1 ack 40 ------- 0 7.0 0.0 6 116
r 1.043408 1 3 ack 40 ------- 0 5.1 3.0 10 105
+ 1.043408 3 1 tcp 1540 ------- 0 3.0 5.1 21 124
+ 1.043408 3 1 tcp 1540 ------- 0 3.0 5.1 22 125
- 1.043408 3 1 tcp 1540 ------- 0 3.0 5.1 18 114
r 1.043696 8 5 tcp 1540 ------- 0 8.0 5.0 28 61
+ 1.043696 5 8 ack 40 ------- 0 5.0 8.0 28 126
- 1.043696 5 8 ack 40 ------- 0 5.0 8.0 28 126
r 1.043776 1 0 ack 40 ------- 0 7.0 0.0 3 100
+ 1.043776 0 1 tcp 1540 ------- 0 0.0 7.0 7 127
- 1.043776 0 1 tcp 1540 ------- 0 0.0 7.0 7 127
+ 1.043776 0 1 tcp 1540 ------- 0 0.0 7.0 8 128
r 1.04384 5 1 ack 40 ------- 0 5.1 3.0 12 117
+ 1.04384 1 3 ack 40 ------- 0 5.1 3.0 12 117
- 1.04384 1 3 ack 40 ------- 0 5.1 3.0 12 117
- 1.04416 8 5 tcp 1540 ------- 0 8.0 5.0 31 74
r 1.044176 3 1 tcp 1540 ------- 0 3.0 5.1 16 108
+ 1.044176 1 5 tcp 1540 ------- 0 3.0 5.1 16 108
- 1.044176 1 5 tcp 1540 ------- 0 3.0 5.1 16 108
r 1.044208 4 1 ack 40 ------- 0 7.0 0.0 5 110
+ 1.044208 1 0 ack 40 ------- 0 7.0 0.0 5 110
- 1.044208 1 0 ack 40 ------- 0 7.0 0.0 5 110
r 1.044272 1 5 tcp 1540 ------- 0 3.0 5.1 14 88
+ 1.044272 5 1 ack 40 ------- 0 5.1 3.0 14 129
- 1.044272 5 1 ack 40 ------- 0 5.1 3.0 14 129
r 1.044496 5 8 ack 40 ------- 0 5.0 8.0 27 121
+ 1.044496 8 5 tcp 1540 ------- 0 8.0 5.0 47 130
r 1.04464 1 3 ack 40 ------- 0 5.1 3.0 11 111
+ 1.04464 3 1 tcp 1540 ------- 0 3.0 5.1 23 131
+ 1.04464 3 1 tcp 1540 ------- 0 3.0 5.1 24 132
- 1.04464 3 1 tcp 1540 ------- 0 3.0 5.1 19 119
r 1.044928 8 5 tcp 1540 ------- 0 8.0 5.0 29 66
+ 1.044928 5 8 ack 40 ------- 0 5.0 8.0 29 133
- 1.044928 5 8 ack 40 ------- 0 5.0 8.0 29 133
r 1.045008 1 0 ack 40 ------- 0 7.0 0.0 4 104
+ 1.045008 0 1 tcp 1540 ------- 0 0.0 7.0 9 134
+ 1.045008 0 1 tcp 1540 ------- 0 0.0 7.0 10 135
- 1.045008 0 1 tcp 1540 ------- 0 0.0 7.0 8 128
r 1.045072 5 1 ack 40 ------- 0 5.1 3.0 13 122
+ 1.045072 1 3 ack 40 ------- 0 5.1 3.0 13 122
- 1.045072 1 3 ack 40 ------- 0 5.1 3.0 13 122
- 1.045392 8 5 tcp 1540 ------- 0 8.0 5.0 32 75
r 1.045408 3 1 tcp 1540 ------- 0 3.0 5.1 17 113
+ 1.045408 1 5 tcp 1540 ------- 0 3.0 5.1 17 113
- 1.045408 1 5 tcp 1540 ------- 0 3.0 5.1 17 113
r 1.04544 4 1 ack 40 ------- 0 7.0 0.0 6 116
+ 1.04544 1 0 ack 40 ------- 0 7.0 0.0 6 116
- 1.04544 1 0 ack 40 ------- 0 7.0 0.0 6 116
r 1.045728 5 8 ack 40 ------- 0 5.0 8.0 28 126
+ 1.045728 8 5 tcp 1540 ------- 0 8.0 5.0 48 136
r 1.045872 1 3 ack 40 ------- 0 5.1 3.0 12 117
+ 1.045872 3 1 tcp 1540 ------- 0 3.0 5.1 25 137
+ 1.045872 3 1 tcp 1540 ------- 0 3.0 5.1 26 138
- 1.045872 3 1 tcp 1540 ------- 0 3.0 5.1 20 120
r 1.04616 8 5 tcp 1540 ------- 0 8.0 5.0 30 67
+ 1.04616 5 8 ack 40 ------- 0 5.0 8.0 30 139
- 1.04616 5 8 ack 40 ------- 0 5.0 8.0 30 139
r 1.046176 1 5 tcp 1540 ------- 0 3.0 5.1 15 107
+ 1.046176 5 1 ack 40 ------- 0 5.1 3.0 15 140
- 1.046176 5 1 ack 40 ------- 0 5.1 3.0 15 140
r 1.04624 1 0 ack 40 ------- 0 7.0 0.0 5 110
+ 1.04624 0 1 tcp 1540 ------- 0 0.0 7.0 11 141
+ 1.04624 0 1 tcp 1540 ------- 0 0.0 7.0 12 142
- 1.04624 0 1 tcp 1540 ------- 0 0.0 7.0 9 134
r 1.046304 5 1 ack 40 ------- 0 5.1 3.0 14 129
+ 1.046304 1 3 ack 40 ------- 0 5.1 3.0 14 129
- 1.046304 1 3 ack 40 ------- 0 5.1 3.0 14 129
- 1.046624 8 5 tcp 1540 ------- 0 8.0 5.0 33 79
r 1.04664 3 1 tcp 1540 ------- 0 3.0 5.1 18 114
+ 1.04664 1 5 tcp 1540 ------- 0 3.0 5.1 18 114
- 1.04664 1 5 tcp 1540 ------- 0 3.0 5.1 18 114
r 1.04696 5 8 ack 40 ------- 0 5.0 8.0 29 133
+ 1.04696 8 5 tcp 1540 ------- 0 8.0 5.0 49 143
r 1.047008 0 1 tcp 1540 ------- 0 0.0 7.0 7 127
+ 1.047008 1 4 tcp 1540 ------- 0 0.0 7.0 7 127
- 1.047008 1 4 tcp 1540 ------- 0 0.0 7.0 7 127
r 1.047104 1 3 ack 40 ------- 0 5.1 3.0 13 122
+ 1.047104 3 1 tcp 1540 ------- 0 3.0 5.1 27 144
+ 1.047104 3 1 tcp 1540 ------- 0 3.0 5.1 28 145
- 1.047104 3 1 tcp 1540 ------- 0 3.0 5.1 21 124
r 1.047392 8 5 tcp 1540 ------- 0 8.0 5.0 31 74
+ 1.047392 5 8 ack 40 ------- 0 5.0 8.0 31 146
- 1.047392 5 8 ack 40 ------- 0 5.0 8.0 31 146
r 1.047408 1 5 tcp 1540 ------- 0 3.0 5.1 16 108
+ 1.047408 5 1 ack 40 ------- 0 5.1 3.0 16 147
- 1.047408 5 1 ack 40 ------- 0 5.1 3.0 16 147
r 1.047472 1 0 ack 40 ------- 0 7.0 0.0 6 116
+ 1.047472 0 1 tcp 1540 ------- 0 0.0 7.0 13 148
+ 1.047472 0 1 tcp 1540 ------- 0 0.0 7.0 14 149
- 1.047472 0 1 tcp 1540 ------- 0 0.0 7.0 10 135
- 1.047856 8 5 tcp 1540 ------- 0 8.0 5.0 34 80
r 1.047872 3 1 tcp 1540 ------- 0 3.0 5.1 19 119
+ 1.047872 1 5 tcp 1540 ------- 0 3.0 5.1 19 119
- 1.047872 1 5 tcp 1540 ------- 0 3.0 5.1 19 119
r 1.048192 5 8 ack 40 ------- 0 5.0 8.0 30 139
+ 1.048192 8 5 tcp 1540 ------- 0 8.0 5.0 50 150
r 1.048208 5 1 ack 40 ------- 0 5.1 3.0 15 140
+ 1.048208 1 3 ack 40 ------- 0 5.1 3.0 15 140
- 1.048208 1 3 ack 40 ------- 0 5.1 3.0 15 140
r 1.04824 0 1 tcp 1540 ------- 0 0.0 7.0 8 128
+ 1.04824 1 4 tcp 1540 ------- 0 0.0 7.0 8 128
- 1.04824 1 4 tcp 1540 ------- 0 0.0 7.0 8 128
r 1.048336 1 3 ack 40 ------- 0 5.1 3.0 14 129
+ 1.048336 3 1 tcp 1540 ------- 0 3.0 5.1 29 151
+ 1.048336 3 1 tcp 1540 ------- 0 3.0 5.1 30 152
- 1.048336 3 1 tcp 1540 ------- 0 3.0 5.1 22 125
r 1.048624 8 5 tcp 1540 ------- 0 8.0 5.0 32 75
+ 1.048624 5 8 ack 40 ------- 0 5.0 8.0 32 153
- 1.048624 5 8 ack 40 ------- 0 5.0 8.0 32 153
r 1.04864 1 5 tcp 1540 ------- 0 3.0 5.1 17 113
+ 1.04864 5 1 ack 40 ------- 0 5.1 3.0 17 154
- 1.04864 5 1 ack 40 ------- 0 5.1 3.0 17 154
- 1.048704 0 1 tcp 1540 ------- 0 0.0 7.0 11 141
- 1.049088 8 5 tcp 1540 ------- 0 8.0 5.0 35 84
r 1.049104 3 1 tcp 1540 ------- 0 3.0 5.1 20 120
+ 1.049104 1 5 tcp 1540 ------- 0 3.0 5.1 20 120
- 1.049104 1 5 tcp 1540 ------- 0 3.0 5.1 20 120
r 1.049424 5 8 ack 40 ------- 0 5.0 8.0 31 146
+ 1.049424 8 5 tcp 1540 ------- 0 8.0 5.0 51 155
r 1.04944 5 1 ack 40 ------- 0 5.1 3.0 16 147
+ 1.04944 1 3 ack 40 ------- 0 5.1 3.0 16 147
- 1.04944 1 3 ack 40 ------- 0 5.1 3.0 16 147
r 1.049472 0 1 tcp 1540 ------- 0 0.0 7.0 9 134
+ 1.049472 1 4 tcp 1540 ------- 0 0.0 7.0 9 134
- 1.049472 1 4 tcp 1540 ------- 0 0.0 7.0 9 134
- 1.049568 3 1 tcp 1540 ------- 0 3.0 5.1 23 131
r 1.049856 8 5 tcp 1540 ------- 0 8.0 5.0 33 79
+ 1.049856 5 8 ack 40 ------- 0 5.0 8.0 33 156
- 1.049856 5 8 ack 40 ------- 0 5.0 8.0 33 156
r 1.049872 1 5 tcp 1540 ------- 0 3.0 5.1 18 114
+ 1.049872 5 1 ack 40 ------- 0 5.1 3.0 18 157
- 1.049872 5 1 ack 40 ------- 0 5.1 3.0 18 157
- 1.049936 0 1 tcp 1540 ------- 0 0.0 7.0 12 142
r 1.05024 1 4 tcp 1540 ------- 0 0.0 7.0 7 127
+ 1.05024 4 7 tcp 1540 ------- 0 0.0 7.0 7 127
- 1.05024 4 7 tcp 1540 ------- 0 0.0 7.0 7 127
r 1.05024 1 3 ack 40 ------- 0 5.1 3.0 15 140
+ 1.05024 3 1 tcp 1540 ------- 0 3.0 5.1 31 158
+ 1.05024 3 1 tcp 1540 ------- 0 3.0 5.1 32 159
- 1.05032 8 5 tcp 1540 ------- 0 8.0 5.0 36 85
r 1.050336 3 1 tcp 1540 ------- 0 3.0 5.1 21 124
+ 1.050336 1 5 tcp 1540 ------- 0 3.0 5.1 21 124
- 1.050336 1 5 tcp 1540 ------- 0 3.0 5.1 21 124
r 1.050656 5 8 ack 40 ------- 0 5.0 8.0 32 153
+ 1.050656 8 5 tcp 1540 ------- 0 8.0 5.0 52 160
r 1.050672 5 1 ack 40 ------- 0 5.1 3.0 17 154
+ 1.050672 1 3 ack 40 ------- 0 5.1 3.0 17 154
- 1.050672 1 3 ack 40 ------- 0 5.1 3.0 17 154
r 1.050704 0 1 tcp 1540 ------- 0 0.0 7.0 10 135
+ 1.050704 1 4 tcp 1540 ------- 0 0.0 7.0 10 135
- 1.050704 1 4 tcp 1540 ------- 0 0.0 7.0 10 135
- 1.0508 3 1 tcp 1540 ------- 0 3.0 5.1 24 132
r 1.051088 8 5 tcp 1540 ------- 0 8.0 5.0 34 80
+ 1.051088 5 8 ack 40 ------- 0 5.0 8.0 34 161
- 1.051088 5 8 ack 40 ------- 0 5.0 8.0 34 161
r 1.051104 1 5 tcp 1540 ------- 0 3.0 5.1 19 119
+ 1.051104 5 1 ack 40 ------- 0 5.1 3.0 19 162
- 1.051104 5 1 ack 40 ------- 0 5.1 3.0 19 162
- 1.051168 0 1 tcp 1540 ------- 0 0.0 7.0 13 148
r 1.051472 1 4 tcp 1540 ------- 0 0.0 7.0 8 128
+ 1.051472 4 7 tcp 1540 ------- 0 0.0 7.0 8 128
r 1.051472 1 3 ack 40 ------- 0 5.1 3.0 16 147
+ 1.051472 3 1 tcp 1540 ------- 0 3.0 5.1 33 163
+ 1.051472 3 1 tcp 1540 ------- 0 3.0 5.1 34 164
- 1.051472 4 7 tcp 1540 ------- 0 0.0 7.0 8 128