V -t * -v 1.0a5 -a 0
A -t * -n 1 -p 0 -o 0x7fffffff -c 30 -a 1
A -t * -h 1 -m 1073741823 -s 0
n -t * -a 8 -s 8 -S UP -v circle -c black -i black
n -t * -a 4 -s 4 -S UP -v circle -c black -i black
n -t * -a 0 -s 0 -S UP -v circle -c black -i black
n -t * -a 5 -s 5 -S UP -v circle -c black -i black
n -t * -a 1 -s 1 -S UP -v circle -c black -i black
n -t * -a 6 -s 6 -S UP -v circle -c black -i black
n -t * -a 2 -s 2 -S UP -v circle -c black -i black
n -t * -a 7 -s 7 -S UP -v circle -c black -i black
n -t * -a 3 -s 3 -S UP -v circle -c black -i black
l -t * -s 0 -d 1 -S UP -r 10000000 -D 0.002 -c black -o right-down
l -t * -s 2 -d 1 -S UP -r 10000000 -D 0.002 -c black -o right-up
l -t * -s 3 -d 1 -S UP -r 10000000 -D 0.002 -c black -o left-down
l -t * -s 1 -d 4 -S UP -r 10000000 -D 0.002 -c black -o right-down
l -t * -s 5 -d 1 -S UP -r 10000000 -D 0.002 -c black -o left
l -t * -s 6 -d 5 -S UP -r 10000000 -D 0.002 -c black -o left-down
l -t * -s 8 -d 6 -S UP -r 110000000 -D 0.002 -c black -o left-up
l -t * -s 5 -d 7 -S UP -r 10000000 -D 0.002 -c black -o right-down
l -t * -s 5 -d 8 -S UP -r 10000000 -D 0.002 -c black -o right
l -t * -s 7 -d 8 -S UP -r 10000000 -D 0.002 -c black -o right-up
l -t * -s 3 -d 6 -S UP -r 10000000 -D 0.002 -c black -o right
l -t * -s 4 -d 7 -S UP -r 10000000 -D 0.002 -c black -o right
+ -t 1 -s 0 -d 1 -p tcp -e 40 -c 0 -i 0 -a 0 -x {0.0 7.0 0 ------- null}
- -t 1 -s 0 -d 1 -p tcp -e 40 -c 0 -i 0 -a 0 -x {0.0 7.0 0 ------- null}
h -t 1 -s 0 -d 1 -p tcp -e 40 -c 0 -i 0 -a 0 -x {0.0 7.0 -1 ------- null}
+ -t 1 -s 3 -d 1 -p tcp -e 40 -c 0 -i 1 -a 0 -x {3.0 5.1 0 ------- null}
- -t 1 -s 3 -d 1 -p tcp -e 40 -c 0 -i 1 -a 0 -x {3.0 5.1 0 ------- null}
h -t 1 -s 3 -d 1 -p tcp -e 40 -c 0 -i 1 -a 0 -x {3.0 5.1 -1 ------- null}
+ -t 1 -s 8 -d 5 -p tcp -e 40 -c 0 -i 2 -a 0 -x {8.0 5.0 0 ------- null}
- -t 1 -s 8 -d 5 -p tcp -e 40 -c 0 -i 2 -a 0 -x {8.0 5.0 0 ------- null}
h -t 1 -s 8 -d 5 -p tcp -e 40 -c 0 -i 2 -a 0 -x {8.0 5.0 -1 ------- null}
r -t 1.002032 -s 0 -d 1 -p tcp -e 40 -c 0 -i 0 -a 0 -x {0.0 7.0 0 ------- null}
+ -t 1.002032 -s 1 -d 4 -p tcp -e 40 -c 0 -i 0 -a 0 -x {0.0 7.0 0 ------- null}
- -t 1.002032 -s 1 -d 4 -p tcp -e 40 -c 0 -i 0 -a 0 -x {0.0 7.0 0 ------- null}
h -t 1.002032 -s 1 -d 4 -p tcp -e 40 -c 0 -i 0 -a 0 -x {0.0 7.0 -1 ------- null}
r -t 1.002032 -s 3 -d 1 -p tcp -e 40 -c 0 -i 1 -a 0 -x {3.0 5.1 0 ------- null}
+ -t 1.002032 -s 1 -d 5 -p tcp -e 40 -c 0 -i 1 -a 0 -x {3.0 5.1 0 ------- null}
- -t 1.002032 -s 1 -d 5 -p tcp -e 40 -c 0 -i 1 -a 0 -x {3.0 5.1 0 ------- null}
h -t 1.002032 -s 1 -d 5 -p tcp -e 40 -c 0 -i 1 -a 0 -x {3.0 5.1 -1 ------- null}
r -t 1.002032 -s 8 -d 5 -p tcp -e 40 -c 0 -i 2 -a 0 -x {8.0 5.0 0 ------- null}
+ -t 1.002032 -s 5 -d 8 -p ack -e 40 -c 0 -i 3 -a 0 -x {5.0 8.0 0 ------- null}
- -t 1.002032 -s 5 -d 8 -p ack -e 40 -c 0 -i 3 -a 0 -x {5.0 8.0 0 ------- null}
h -t 1.002032 -s 5 -d 8 -p ack -e 40 -c 0 -i 3 -a 0 -x {5.0 8.0 -1 ------- null}
r -t 1.004064 -s 1 -d 4 -p tcp -e 40 -c 0 -i 0 -a 0 -x {0.0 7.0 0 ------- null}
+ -t 1.004064 -s 4 -d 7 -p tcp -e 40 -c 0 -i 0 -a 0 -x {0.0 7.0 0 ------- null}
- -t 1.004064 -s 4 -d 7 -p tcp -e 40 -c 0 -i 0 -a 0 -x {0.0 7.0 0 ------- null}
h -t 1.004064 -s 4 -d 7 -p tcp -e 40 -c 0 -i 0 -a 0 -x {0.0 7.0 -1 ------- null}
r -t 1.004064 -s 1 -d 5 -p tcp -e 40 -c 0 -i 1 -a 0 -x {3.0 5.1 0 ------- null}
+ -t 1.004064 -s 5 -d 1 -p ack -e 40 -c 0 -i 4 -a 0 -x {5.1 3.0 0 ------- null}
- -t 1.004064 -s 5 -d 1 -p ack -e 40 -c 0 -i 4 -a 0 -x {5.1 3.0 0 ------- null}
h -t 1.004064 -s 5 -d 1 -p ack -e 40 -c 0 -i 4 -a 0 -x {5.1 3.0 -1 ------- null}
r -t 1.004064 -s 5 -d 8 -p ack -e 40 -c 0 -i 3 -a 0 -x {5.0 8.0 0 ------- null}
+ -t 1.004064 -s 8 -d 5 -p tcp -e 1540 -c 0 -i 5 -a 0 -x {8.0 5.0 1 ------- null}
- -t 1.004064 -s 8 -d 5 -p tcp -e 1540 -c 0 -i 5 -a 0 -x {8.0 5.0 1 ------- null}
h -t 1.004064 -s 8 -d 5 -p tcp -e 1540 -c 0 -i 5 -a 0 -x {8.0 5.0 -1 ------- null}
+ -t 1.004064 -s 8 -d 5 -p tcp -e 1540 -c 0 -i 6 -a 0 -x {8.0 5.0 2 ------- null}
- -t 1.005296 -s 8 -d 5 -p tcp -e 1540 -c 0 -i 6 -a 0 -x {8.0 5.0 2 ------- null}
h -t 1.005296 -s 8 -d 5 -p tcp -e 1540 -c 0 -i 6 -a 0 -x {8.0 5.0 -1 ------- null}
r -t 1.006096 -s 4 -d 7 -p tcp -e 40 -c 0 -i 0 -a 0 -x {0.0 7.0 0 ------- null}
+ -t 1.006096 -s 7 -d 4 -p ack -e 40 -c 0 -i 7 -a 0 -x {7.0 0.0 0 ------- null}
- -t 1.006096 -s 7 -d 4 -p ack -e 40 -c 0 -i 7 -a 0 -x {7.0 0.0 0 ------- null}
h -t 1.006096 -s 7 -d 4 -p ack -e 40 -c 0 -i 7 -a 0 -x {7.0 0.0 -1 ------- null}
r -t 1.006096 -s 5 -d 1 -p ack -e 40 -c 0 -i 4 -a 0 -x {5.1 3.0 0 ------- null}
+ -t 1.006096 -s 1 -d 3 -p ack -e 40 -c 0 -i 4 -a 0 -x {5.1 3.0 0 ------- null}
- -t 1.006096 -s 1 -d 3 -p ack -e 40 -c 0 -i 4 -a 0 -x {5.1 3.0 0 ------- null}
h -t 1.006096 -s 1 -d 3 -p ack -e 40 -c 0 -i 4 -a 0 -x {5.1 3.0 -1 ------- null}
r -t 1.007296 -s 8 -d 5 -p tcp -e 1540 -c 0 -i 5 -a 0 -x {8.0 5.0 1 ------- null}
+ -t 1.007296 -s 5 -d 8 -p ack -e 40 -c 0 -i 8 -a 0 -x {5.0 8.0 1 ------- null}
- -t 1.007296 -s 5 -d 8 -p ack -e 40 -c 0 -i 8 -a 0 -x {5.0 8.0 1 ------- null}
h -t 1.007296 -s 5 -d 8 -p ack -e 40 -c 0 -i 8 -a 0 -x {5.0 8.0 -1 ------- null}
r -t 1.008128 -s 7 -d 4 -p ack -e 40 -c 0 -i 7 -a 0 -x {7.0 0.0 0 ------- null}
+ -t 1.008128 -s 4 -d 1 -p ack -e 40 -c 0 -i 7 -a 0 -x {7.0 0.0 0 ------- null}
- -t 1.008128 -s 4 -d 1 -p ack -e 40 -c 0 -i 7 -a 0 -x {7.0 0.0 0 ------- null}
h -t 1.008128 -s 4 -d 1 -p ack -e 40 -c 0 -i 7 -a 0 -x {7.0 0.0 -1 ------- null}
r -t 1.008128 -s 1 -d 3 -p ack -e 40 -c 0 -i 4 -a 0 -x {5.1 3.0 0 ------- null}
+ -t 1.008128 -s 3 -d 1 -p tcp -e 1540 -c 0 -i 9 -a 0 -x {3.0 5.1 1 ------- null}
- -t 1.008128 -s 3 -d 1 -p tcp -e 1540 -c 0 -i 9 -a 0 -x {3.0 5.1 1 ------- null}
h -t 1.008128 -s 3 -d 1 -p tcp -e 1540 -c 0 -i 9 -a 0 -x {3.0 5.1 -1 ------- null}
+ -t 1.008128 -s 3 -d 1 -p tcp -e 1540 -c 0 -i 10 -a 0 -x {3.0 5.1 2 ------- null}
r -t 1.008528 -s 8 -d 5 -p tcp -e 1540 -c 0 -i 6 -a 0 -x {8.0 5.0 2 ------- null}
+ -t 1.008528 -s 5 -d 8 -p ack -e 40 -c 0 -i 11 -a 0 -x {5.0 8.0 2 ------- null}
- -t 1.008528 -s 5 -d 8 -p ack -e 40 -c 0 -i 11 -a 0 -x {5.0 8.0 2 ------- null}
h -t 1.008528 -s 5 -d 8 -p ack -e 40 -c 0 -i 11 -a 0 -x {5.0 8.0 -1 ------- null}
r -t 1.009328 -s 5 -d 8 -p ack -e 40 -c 0 -i 8 -a 0 -x {5.0 8.0 1 ------- null}
+ -t 1.009328 -s 8 -d 5 -p tcp -e 1540 -c 0 -i 12 -a 0 -x {8.0 5.0 3 ------- null}
- -t 1.009328 -s 8 -d 5 -p tcp -e 1540 -c 0 -i 12 -a 0 -x {8.0 5.0 3 ------- null}
h -t 1.009328 -s 8 -d 5 -p tcp -e 1540 -c 0 -i 12 -a 0 -x {8.0 5.0 -1 ------- null}
+ -t 1.009328 -s 8 -d 5 -p tcp -e 1540 -c 0 -i 13 -a 0 -x {8.0 5.0 4 ------- null}
- -t 1.00936 -s 3 -d 1 -p tcp -e 1540 -c 0 -i 10 -a 0 -x {3.0 5.1 2 ------- null}
h -t 1.00936 -s 3 -d 1 -p tcp -e 1540 -c 0 -i 10 -a 0 -x {3.0 5.1 -1 ------- null}
r -t 1.01016 -s 4 -d 1 -p ack -e 40 -c 0 -i 7 -a 0 -x {7.0 0.0 0 ------- null}
+ -t 1.01016 -s 1 -d 0 -p ack -e 40 -c 0 -i 7 -a 0 -x {7.0 0.0 0 ------- null}
- -t 1.01016 -s 1 -d 0 -p ack -e 40 -c 0 -i 7 -a 0 -x {7.0 0.0 0 ------- null}
h -t 1.01016 -s 1 -d 0 -p ack -e 40 -c 0 -i 7 -a 0 -x {7.0 0.0 -1 ------- null}
r -t 1.01056 -s 5 -d 8 -p ack -e 40 -c 0 -i 11 -a 0 -x {5.0 8.0 2 ------- null}
+ -t 1.01056 -s 8 -d 5 -p tcp -e 1540 -c 0 -i 14 -a 0 -x {8.0 5.0 5 ------- null}
+ -t 1.01056 -s 8 -d 5 -p tcp -e 1540 -c 0 -i 15 -a 0 -x {8.0 5.0 6 ------- null}
- -t 1.01056 -s 8 -d 5 -p tcp -e 1540 -c 0 -i 13 -a 0 -x {8.0 5.0 4 ------- null}
h -t 1.01056 -s 8 -d 5 -p tcp -e 1540 -c 0 -i 13 -a 0 -x {8.0 5.0 -1 ------- null}
r -t 1.01136 -s 3 -d 1 -p tcp -e 1540 -c 0 -i 9 -a 0 -x {3.0 5.1 1 ------- null}
+ -t 1.01136 -s 1 -d 5 -p tcp -e 1540 -c 0 -i 9 -a 0 -x {3.0 5.1 1 ------- null}
- -t 1.01136 -s 1 -d 5 -p tcp -e 1540 -c 0 -i 9 -a 0 -x {3.0 5.1 1 ------- null}
h -t 1.01136 -s 1 -d 5 -p tcp -e 1540 -c 0 -i 9 -a 0 -x {3.0 5.1 -1 ------- null}
- -t 1.011792 -s 8 -d 5 -p tcp -e 1540 -c 0 -i 14 -a 0 -x {8.0 5.0 5 ------- null}
h -t 1.011792 -s 8 -d 5 -p tcp -e 1540 -c 0 -i 14 -a 0 -x {8.0 5.0 -1 ------- null}
r -t 1.012192 -s 1 -d 0 -p ack -e 40 -c 0 -i 7 -a 0 -x {7.0 0.0 0 ------- null}
+ -t 1.012192 -s 0 -d 1 -p tcp -e 1540 -c 0 -i 16 -a 0 -x {0.0 7.0 1 ------- null}
- -t 1.012192 -s 0 -d 1 -p tcp -e 1540 -c 0 -i 16 -a 0 -x {0.0 7.0 1 ------- null}
h -t 1.012192 -s 0 -d 1 -p tcp -e 1540 -c 0 -i 16 -a 0 -x {0.0 7.0 -1 ------- null}
+ -t 1.012192 -s 0 -d 1 -p tcp -e 1540 -c 0 -i 17 -a 0 -x {0.0 7.0 2 ------- null}
r -t 1.01256 -s 8 -d 5 -p tcp -e 1540 -c 0 -i 12 -a 0 -x {8.0 5.0 3 ------- null}
+ -t 1.01256 -s 5 -d 8 -p ack -e 40 -c 0 -i 18 -a 0 -x {5.0 8.0 3 ------- null}
- -t 1.01256 -s 5 -d 8 -p ack -e 40 -c 0 -i 18 -a 0 -x {5.0 8.0 3 ------- null}
h -t 1.01256 -s 5 -d 8 -p ack -e 40 -c 0 -i 18 -a 0 -x {5.0 8.0 -1 ------- null}
r -t 1.012592 -s 3 -d 1 -p tcp -e 1540 -c 0 -i 10 -a 0 -x {3.0 5.1 2 ------- null}
+ -t 1.012592 -s 1 -d 5 -p tcp -e 1540 -c 0 -i 10 -a 0 -x {3.0 5.1 2 ------- null}
- -t 1.012592 -s 1 -d 5 -p tcp -e 1540 -c 0 -i 10 -a 0 -x {3.0 5.1 2 ------- null}
h -t 1.012592 -s 1 -d 5 -p tcp -e 1540 -c 0 -i 10 -a 0 -x {3.0 5.1 -1 ------- null}
- -t 1.013024 -s 8 -d 5 -p tcp -e 1540 -c 0 -i 15 -a 0 -x {8.0 5.0 6 ------- null}
h -t 1.013024 -s 8 -d 5 -p tcp -e 1540 -c 0 -i 15 -a 0 -x {8.0 5.0 -1 ------- null}
- -t 1.013424 -s 0 -d 1 -p tcp -e 1540 -c 0 -i 17 -a 0 -x {0.0 7.0 2 ------- null}
h -t 1.013424 -s 0 -d 1 -p tcp -e 1540 -c 0 -i 17 -a 0 -x {0.0 7.0 -1 ------- null}
r -t 1.013792 -s 8 -d 5 -p tcp -e 1540 -c 0 -i 13 -a 0 -x {8.0 5.0 4 ------- null}
+ -t 1.013792 -s 5 -d 8 -p ack -e 40 -c 0 -i 19 -a 0 -x {5.0 8.0 4 ------- null}
- -t 1.013792 -s 5 -d 8 -p ack -e 40 -c 0 -i 19 -a 0 -x {5.0 8.0 4 ------- null}
h -t 1.013792 -s 5 -d 8 -p ack -e 40 -c 0 -i 19 -a 0 -x {5.0 8.0 -1 ------- null}
r -t 1.014592 -s 1 -d 5 -p tcp -e 1540 -c 0 -i 9 -a 0 -x {3.0 5.1 1 ------- null}
+ -t 1.014592 -s 5 -d 1 -p ack -e 40 -c 0 -i 20 -a 0 -x {5.1 3.0 1 ------- null}
- -t 1.014592 -s 5 -d 1 -p ack -e 40 -c 0 -i 20 -a 0 -x {5.1 3.0 1 ------- null}
h -t 1.014592 -s 5 -d 1 -p ack -e 40 -c 0 -i 20 -a 0 -x {5.1 3.0 -1 ------- null}
r -t 1.014592 -s 5 -d 8 -p ack -e 40 -c 0 -i 18 -a 0 -x {5.0 8.0 3 ------- null}
+ -t 1.014592 -s 8 -d 5 -p tcp -e 1540 -c 0 -i 21 -a 0 -x {8.0 5.0 7 ------- null}
- -t 1.014592 -s 8 -d 5 -p tcp -e 1540 -c 0 -i 21 -a 0 -x {8.0 5.0 7 ------- null}
h -t 1.014592 -s 8 -d 5 -p tcp -e 1540 -c 0 -i 21 -a 0 -x {8.0 5.0 -1 ------- null}
+ -t 1.014592 -s 8 -d 5 -p tcp -e 1540 -c 0 -i 22 -a 0 -x {8.0 5.0 8 ------- null}
r -t 1.015024 -s 8 -d 5 -p tcp -e 1540 -c 0 -i 14 -a 0 -x {8.0 5.0 5 ------- null}
+ -t 1.015024 -s 5 -d 8 -p ack -e 40 -c 0 -i 23 -a 0 -x {5.0 8.0 5 ------- null}
- -t 1.015024 -s 5 -d 8 -p ack -e 40 -c 0 -i 23 -a 0 -x {5.0 8.0 5 ------- null}
h -t 1.015024 -s 5 -d 8 -p ack -e 40 -c 0 -i 23 -a 0 -x {5.0 8.0 -1 ------- null}
r -t 1.015424 -s 0 -d 1 -p tcp -e 1540 -c 0 -i 16 -a 0 -x {0.0 7.0 1 ------- null}
+ -t 1.015424 -s 1 -d 4 -p tcp -e 1540 -c 0 -i 16 -a 0 -x {0.0 7.0 1 ------- null}
- -t 1.015424 -s 1 -d 4 -p tcp -e 1540 -c 0 -i 16 -a 0 -x {0.0 7.0 1 ------- null}
h -t 1.015424 -s 1 -d 4 -p tcp -e 1540 -c 0 -i 16 -a 0 -x {0.0 7.0 -1 ------- null}
r -t 1.015824 -s 1 -d 5 -p tcp -e 1540 -c 0 -i 10 -a 0 -x {3.0 5.1 2 ------- null}
+ -t 1.015824 -s 5 -d 1 -p ack -e 40 -c 0 -i 24 -a 0 -x {5.1 3.0 2 ------- null}
- -t 1.015824 -s 5 -d 1 -p ack -e 40 -c 0 -i 24 -a 0 -x {5.1 3.0 2 ------- null}
h -t 1.015824 -s 5 -d 1 -p ack -e 40 -c 0 -i 24 -a 0 -x {5.1 3.0 -1 ------- null}
r -t 1.015824 -s 5 -d 8 -p ack -e 40 -c 0 -i 19 -a 0 -x {5.0 8.0 4 ------- null}
+ -t 1.015824 -s 8 -d 5 -p tcp -e 1540 -c 0 -i 25 -a 0 -x {8.0 5.0 9 ------- null}
+ -t 1.015824 -s 8 -d 5 -p tcp -e 1540 -c 0 -i 26 -a 0 -x {8.0 5.0 10 ------- null}
- -t 1.015824 -s 8 -d 5 -p tcp -e 1540 -c 0 -i 22 -a 0 -x {8.0 5.0 8 ------- null}
h -t 1.015824 -s 8 -d 5 -p tcp -e 1540 -c 0 -i 22 -a 0 -x {8.0 5.0 -1 ------- null}
r -t 1.016256 -s 8 -d 5 -p tcp -e 1540 -c 0 -i 15 -a 0 -x {8.0 5.0 6 ------- null}
+ -t 1.016256 -s 5 -d 8 -p ack -e 40 -c 0 -i 27 -a 0 -x {5.0 8.0 6 ------- null}
- -t 1.016256 -s 5 -d 8 -p ack -e 40 -c 0 -i 27 -a 0 -x {5.0 8.0 6 ------- null}
h -t 1.016256 -s 5 -d 8 -p ack -e 40 -c 0 -i 27 -a 0 -x {5.0 8.0 -1 ------- null}
r -t 1.016624 -s 5 -d 1 -p ack -e 40 -c 0 -i 20 -a 0 -x {5.1 3.0 1 ------- null}
+ -t 1.016624 -s 1 -d 3 -p ack -e 40 -c 0 -i 20 -a 0 -x {5.1 3.0 1 ------- null}
- -t 1.016624 -s 1 -d 3 -p ack -e 40 -c 0 -i 20 -a 0 -x {5.1 3.0 1 ------- null}
h -t 1.016624 -s 1 -d 3 -p ack -e 40 -c 0 -i 20 -a 0 -x {5.1 3.0 -1 ------- null}
r -t 1.016656 -s 0 -d 1 -p tcp -e 1540 -c 0 -i 17 -a 0 -x {0.0 7.0 2 ------- null}
+ -t 1.016656 -s 1 -d 4 -p tcp -e 1540 -c 0 -i 17 -a 0 -x {0.0 7.0 2 ------- null}
- -t 1.016656 -s 1 -d 4 -p tcp -e 1540 -c 0 -i 17 -a 0 -x {0.0 7.0 2 ------- null}
h -t 1.016656 -s 1 -d 4 -p tcp -e 1540 -c 0 -i 17 -a 0 -x {0.0 7.0 -1 ------- null}
r -t 1.017056 -s 5 -d 8 -p ack -e 40 -c 0 -i 23 -a 0 -x {5.0 8.0 5 ------- null}
+ -t 1.017056 -s 8 -d 5 -p tcp -e 1540 -c 0 -i 28 -a 0 -x {8.0 5.0 11 ------- null}
+ -t 1.017056 -s 8 -d 5 -p tcp -e 1540 -c 0 -i 29 -a 0 -x {8.0 5.0 12 ------- null}
- -t 1.017056 -s 8 -d 5 -p tcp -e 1540 -c 0 -i 25 -a 0 -x {8.0 5.0 9 ------- null}
h -t 1.017056 -s 8 -d 5 -p tcp -e 1540 -c 0 -i 25 -a 0 -x {8.0 5.0 -1 ------- null}
r -t 1.017824 -s 8 -d 5 -p tcp -e 1540 -c 0 -i 21 -a 0 -x {8.0 5.0 7 ------- null}
+ -t 1.017824 -s 5 -d 8 -p ack -e 40 -c 0 -i 30 -a 0 -x {5.0 8.0 7 ------- null}
- -t 1.017824 -s 5 -d 8 -p ack -e 40 -c 0 -i 30 -a 0 -x {5.0 8.0 7 ------- null}
h -t 1.017824 -s 5 -d 8 -p ack -e 40 -c 0 -i 30 -a 0 -x {5.0 8.0 -1 ------- null}
r -t 1.017856 -s 5 -d 1 -p ack -e 40 -c 0 -i 24 -a 0 -x {5.1 3.0 2 ------- null}
+ -t 1.017856 -s 1 -d 3 -p ack -e 40 -c 0 -i 24 -a 0 -x {5.1 3.0 2 ------- null}
- -t 1.017856 -s 1 -d 3 -p ack -e 40 -c 0 -i 24 -a 0 -x {5.1 3.0 2 ------- null}
h -t 1.017856 -s 1 -d 3 -p ack -e 40 -c 0 -i 24 -a 0 -x {5.1 3.0 -1 ------- null}
r -t 1.018288 -s 5 -d 8 -p ack -e 40 -c 0 -i 27 -a 0 -x {5.0 8.0 6 ------- null}
+ -t 1.018288 -s 8 -d 5 -p tcp -e 1540 -c 0 -i 31 -a 0 -x {8.0 5.0 13 ------- null}
+ -t 1.018288 -s 8 -d 5 -p tcp -e 1540 -c 0 -i 32 -a 0 -x {8.0 5.0 14 ------- null}
- -t 1.018288 -s 8 -d 5 -p tcp -e 1540 -c 0 -i 26 -a 0 -x {8.0 5.0 10 ------- null}
h -t 1.018288 -s 8 -d 5 -p tcp -e 1540 -c 0 -i 26 -a 0 -x {8.0 5.0 -1 ------- null}
r -t 1.018656 -s 1 -d 4 -p tcp -e 1540 -c 0 -i 16 -a 0 -x {0.0 7.0 1 ------- null}
+ -t 1.018656 -s 4 -d 7 -p tcp -e 1540 -c 0 -i 16 -a 0 -x {0.0 7.0 1 ------- null}
- -t 1.018656 -s 4 -d 7 -p tcp -e 1540 -c 0 -i 16 -a 0 -x {0.0 7.0 1 ------- null}
h -t 1.018656 -s 4 -d 7 -p tcp -e 1540 -c 0 -i 16 -a 0 -x {0.0 7.0 -1 ------- null}
r -t 1.018656 -s 1 -d 3 -p ack -e 40 -c 0 -i 20 -a 0 -x {5.1 3.0 1 ------- null}
+ -t 1.018656 -s 3 -d 1 -p tcp -e 1540 -c 0 -i 33 -a 0 -x {3.0 5.1 3 ------- null}
- -t 1.018656 -s 3 -d 1 -p tcp -e 1540 -c 0 -i 33 -a 0 -x {3.0 5.1 3 ------- null}
h -t 1.018656 -s 3 -d 1 -p tcp -e 1540 -c 0 -i 33 -a 0 -x {3.0 5.1 -1 ------- null}
+ -t 1.018656 -s 3 -d 1 -p tcp -e 1540 -c 0 -i 34 -a 0 -x {3.0 5.1 4 ------- null}
r -t 1.019056 -s 8 -d 5 -p tcp -e 1540 -c 0 -i 22 -a 0 -x {8.0 5.0 8 ------- null}
+ -t 1.019056 -s 5 -d 8 -p ack -e 40 -c 0 -i 35 -a 0 -x {5.0 8.0 8 ------- null}
- -t 1.019056 -s 5 -d 8 -p ack -e 40 -c 0 -i 35 -a 0 -x {5.0 8.0 8 ------- null}
h -t 1.019056 -s 5 -d 8 -p ack -e 40 -c 0 -i 35 -a 0 -x {5.0 8.0 -1 ------- null}
- -t 1.01952 -s 8 -d 5 -p tcp -e 1540 -c 0 -i 28 -a 0 -x {8.0 5.0 11 ------- null}
h -t 1.01952 -s 8 -d 5 -p tcp -e 1540 -c 0 -i 28 -a 0 -x {8.0 5.0 -1 ------- null}
r -t 1.019856 -s 5 -d 8 -p ack -e 40 -c 0 -i 30 -a 0 -x {5.0 8.0 7 ------- null}
+ -t 1.019856 -s 8 -d 5 -p tcp -e 1540 -c 0 -i 36 -a 0 -x {8.0 5.0 15 ------- null}
+ -t 1.019856 -s 8 -d 5 -p tcp -e 1540 -c 0 -i 37 -a 0 -x {8.0 5.0 16 ------- null}
r -t 1.019888 -s 1 -d 4 -p tcp -e 1540 -c 0 -i 17 -a 0 -x {0.0 7.0 2 ------- null}
+ -t 1.019888 -s 4 -d 7 -p tcp -e 1540 -c 0 -i 17 -a 0 -x {0.0 7.0 2 ------- null}
r -t 1.019888 -s 1 -d 3 -p ack -e 40 -c 0 -i 24 -a 0 -x {5.1 3.0 2 ------- null}
+ -t 1.019888 -s 3 -d 1 -p tcp -e 1540 -c 0 -i 38 -a 0 -x {3.0 5.1 5 ------- null}
+ -t 1.019888 -s 3 -d 1 -p tcp -e 1540 -c 0 -i 39 -a 0 -x {3.0 5.1 6 ------- null}
- -t 1.019888 -s 4 -d 7 -p tcp -e 1540 -c 0 -i 17 -a 0 -x {0.0 7.0 2 ------- null}
h -t 1.019888 -s 4 -d 7 -p tcp -e 1540 -c 0 -i 17 -a 0 -x {0.0 7.0 -1 ------- null}
- -t 1.019888 -s 3 -d 1 -p tcp -e 1540 -c 0 -i 34 -a 0 -x {3.0 5.1 4 ------- null}
h -t 1.019888 -s 3 -d 1 -p tcp -e 1540 -c 0 -i 34 -a 0 -x {3.0 5.1 -1 ------- null}
r -t 1.020288 -s 8 -d 5 -p tcp -e 1540 -c 0 -i 25 -a 0 -x {8.0 5.0 9 ------- null}
+ -t 1.020288 -s 5 -d 8 -p ack -e 40 -c 0 -i 40 -a 0 -x {5.0 8.0 9 ------- null}
- -t 1.020288 -s 5 -d 8 -p ack -e 40 -c 0 -i 40 -a 0 -x {5.0 8.0 9 ------- null}
h -t 1.020288 -s 5 -d 8 -p ack -e 40 -c 0 -i 40 -a 0 -x {5.0 8.0 -1 ------- null}
- -t 1.020752 -s 8 -d 5 -p tcp -e 1540 -c 0 -i 29 -a 0 -x {8.0 5.0 12 ------- null}
h -t 1.020752 -s 8 -d 5 -p tcp -e 1540 -c 0 -i 29 -a 0 -x {8.0 5.0 -1 ------- null}
r -t 1.021088 -s 5 -d 8 -p ack -e 40 -c 0 -i 35 -a 0 -x {5.0 8.0 8 ------- null}
+ -t 1.021088 -s 8 -d 5 -p tcp -e 1540 -c 0 -i 41 -a 0 -x {8.0 5.0 17 ------- null}
+ -t 1.021088 -s 8 -d 5 -p tcp -e 1540 -c 0 -i 42 -a 0 -x {8.0 5.0 18 ------- null}
- -t 1.02112 -s 3 -d 1 -p tcp -e 1540 -c 0 -i 38 -a 0 -x {3.0 5.1 5 ------- null}
h -t 1.02112 -s 3 -d 1 -p tcp -e 1540 -c 0 -i 38 -a 0 -x {3.0 5.1 -1 ------- null}
r -t 1.02152 -s 8 -d 5 -p tcp -e 1540 -c 0 -i 26 -a 0 -x {8.0 5.0 10 ------- null}
+ -t 1.02152 -s 5 -d 8 -p ack -e 40 -c 0 -i 43 -a 0 -x {5.0 8.0 10 ------- null}
- -t 1.02152 -s 5 -d 8 -p ack -e 40 -c 0 -i 43 -a 0 -x {5.0 8.0 10 ------- null}
h -t 1.02152 -s 5 -d 8 -p ack -e 40 -c 0 -i 43 -a 0 -x {5.0 8.0 -1 ------- null}
r -t 1.021888 -s 4 -d 7 -p tcp -e 1540 -c 0 -i 16 -a 0 -x {0.0 7.0 1 ------- null}
+ -t 1.021888 -s 7 -d 4 -p ack -e 40 -c 0 -i 44 -a 0 -x {7.0 0.0 1 ------- null}
- -t 1.021888 -s 7 -d 4 -p ack -e 40 -c 0 -i 44 -a 0 -x {7.0 0.0 1 ------- null}
h -t 1.021888 -s 7 -d 4 -p ack -e 40 -c 0 -i 44 -a 0 -x {7.0 0.0 -1 ------- null}
r -t 1.021888 -s 3 -d 1 -p tcp -e 1540 -c 0 -i 33 -a 0 -x {3.0 5.1 3 ------- null}
+ -t 1.021888 -s 1 -d 5 -p tcp -e 1540 -c 0 -i 33 -a 0 -x {3.0 5.1 3 ------- null}
- -t 1.021888 -s 1 -d 5 -p tcp -e 1540 -c 0 -i 33 -a 0 -x {3.0 5.1 3 ------- null}
h -t 1.021888 -s 1 -d 5 -p tcp -e 1540 -c 0 -i 33 -a 0 -x {3.0 5.1 -1 ------- null}
- -t 1.021984 -s 8 -d 5 -p tcp -e 1540 -c 0 -i 31 -a 0 -x {8.0 5.0 13 ------- null}
h -t 1.021984 -s 8 -d 5 -p tcp -e 1540 -c 0 -i 31 -a 0 -x {8.0 5.0 -1 ------- null}
r -t 1.02232 -s 5 -d 8 -p ack -e 40 -c 0 -i 40 -a 0 -x {5.0 8.0 9 ------- null}
+ -t 1.02232 -s 8 -d 5 -p tcp -e 1540 -c 0 -i 45 -a 0 -x {8.0 5.0 19 ------- null}
+ -t 1.02232 -s 8 -d 5 -p tcp -e 1540 -c 0 -i 46 -a 0 -x {8.0 5.0 20 ------- null}
- -t 1.022352 -s 3 -d 1 -p tcp -e 1540 -c 0 -i 39 -a 0 -x {3.0 5.1 6 ------- null}
h -t 1.022352 -s 3 -d 1 -p tcp -e 1540 -c 0 -i 39 -a 0 -x {3.0 5.1 -1 ------- null}
r -t 1.022752 -s 8 -d 5 -p tcp -e 1540 -c 0 -i 28 -a 0 -x {8.0 5.0 11 ------- null}
+ -t 1.022752 -s 5 -d 8 -p ack -e 40 -c 0 -i 47 -a 0 -x {5.0 8.0 11 ------- null}
- -t 1.022752 -s 5 -d 8 -p ack -e 40 -c 0 -i 47 -a 0 -x {5.0 8.0 11 ------- null}
h -t 1.022752 -s 5 -d 8 -p ack -e 40 -c 0 -i 47 -a 0 -x {5.0 8.0 -1 ------- null}
r -t 1.02312 -s 4 -d 7 -p tcp -e 1540 -c 0 -i 17 -a 0 -x {0.0 7.0 2 ------- null}
+ -t 1.02312 -s 7 -d 4 -p ack -e 40 -c 0 -i 48 -a 0 -x {7.0 0.0 2 ------- null}
- -t 1.02312 -s 7 -d 4 -p ack -e 40 -c 0 -i 48 -a 0 -x {7.0 0.0 2 ------- null}
h -t 1.02312 -s 7 -d 4 -p ack -e 40 -c 0 -i 48 -a 0 -x {7.0 0.0 -1 ------- null}
r -t 1.02312 -s 3 -d 1 -p tcp -e 1540 -c 0 -i 34 -a 0 -x {3.0 5.1 4 ------- null}
+ -t 1.02312 -s 1 -d 5 -p tcp -e 1540 -c 0 -i 34 -a 0 -x {3.0 5.1 4 ------- null}
- -t 1.02312 -s 1 -d 5 -p tcp -e 1540 -c 0 -i 34 -a 0 -x {3.0 5.1 4 ------- null}
h -t 1.02312 -s 1 -d 5 -p tcp -e 1540 -c 0 -i 34 -a 0 -x {3.0 5.1 -1 ------- null}
- -t 1.023216 -s 8 -d 5 -p tcp -e 1540 -c 0 -i 32 -a 0 -x {8.0 5.0 14 ------- null}
h -t 1.023216 -s 8 -d 5 -p tcp -e 1540 -c 0 -i 32 -a 0 -x {8.0 5.0 -1 ------- null}
r -t 1.023552 -s 5 -d 8 -p ack -e 40 -c 0 -i 43 -a 0 -x {5.0 8.0 10 ------- null}
+ -t 1.023552 -s 8 -d 5 -p tcp -e 1540 -c 0 -i 49 -a 0 -x {8.0 5.0 21 ------- null}
+ -t 1.023552 -s 8 -d 5 -p tcp -e 1540 -c 0 -i 50 -a 0 -x {8.0 5.0 22 ------- null}
r -t 1.02392 -s 7 -d 4 -p ack -e 40 -c 0 -i 44 -a 0 -x {7.0 0.0 1 ------- null}
+ -t 1.02392 -s 4 -d 1 -p ack -e 40 -c 0 -i 44 -a 0 -x {7.0 0.0 1 ------- null}
- -t 1.02392 -s 4 -d 1 -p ack -e 40 -c 0 -i 44 -a 0 -x {7.0 0.0 1 ------- null}
h -t 1.02392 -s 4 -d 1 -p ack -e 40 -c 0 -i 44 -a 0 -x {7.0 0.0 -1 ------- null}
r -t 1.023984 -s 8 -d 5 -p tcp -e 1540 -c 0 -i 29 -a 0 -x {8.0 5.0 12 ------- null}
+ -t 1.023984 -s 5 -d 8 -p ack -e 40 -c 0 -i 51 -a 0 -x {5.0 8.0 12 ------- null}
- -t 1.023984 -s 5 -d 8 -p ack -e 40 -c 0 -i 51 -a 0 -x {5.0 8.0 12 ------- null}
h -t 1.023984 -s 5 -d 8 -p ack -e 40 -c 0 -i 51 -a 0 -x {5.0 8.0 -1 ------- null}
r -t 1.024352 -s 3 -d 1 -p tcp -e 1540 -c 0 -i 38 -a 0 -x {3.0 5.1 5 ------- null}
+ -t 1.024352 -s 1 -d 5 -p tcp -e 1540 -c 0 -i 38 -a 0 -x {3.0 5.1 5 ------- null}
- -t 1.024352 -s 1 -d 5 -p tcp -e 1540 -c 0 -i 38 -a 0 -x {3.0 5.1 5 ------- null}
h -t 1.024352 -s 1 -d 5 -p tcp -e 1540 -c 0 -i 38 -a 0 -x {3.0 5.1 -1 ------- null}
- -t 1.024448 -s 8 -d 5 -p tcp -e 1540 -c 0 -i 36 -a 0 -x {8.0 5.0 15 ------- null}
h -t 1.024448 -s 8 -d 5 -p tcp -e 1540 -c 0 -i 36 -a 0 -x {8.0 5.0 -1 ------- null}
r -t 1.024784 -s 5 -d 8 -p ack -e 40 -c 0 -i 47 -a 0 -x {5.0 8.0 11 ------- null}
+ -t 1.024784 -s 8 -d 5 -p tcp -e 1540 -c 0 -i 52 -a 0 -x {8.0 5.0 23 ------- null}
+ -t 1.024784 -s 8 -d 5 -p tcp -e 1540 -c 0 -i 53 -a 0 -x {8.0 5.0 24 ------- null}
r -t 1.02512 -s 1 -d 5 -p tcp -e 1540 -c 0 -i 33 -a 0 -x {3.0 5.1 3 ------- null}
+ -t 1.02512 -s 5 -d 1 -p ack -e 40 -c 0 -i 54 -a 0 -x {5.1 3.0 3 ------- null}
- -t 1.02512 -s 5 -d 1 -p ack -e 40 -c 0 -i 54 -a 0 -x {5.1 3.0 3 ------- null}
h -t 1.02512 -s 5 -d 1 -p ack -e 40 -c 0 -i 54 -a 0 -x {5.1 3.0 -1 ------- null}
r -t 1.025152 -s 7 -d 4 -p ack -e 40 -c 0 -i 48 -a 0 -x {7.0 0.0 2 ------- null}
+ -t 1.025152 -s 4 -d 1 -p ack -e 40 -c 0 -i 48 -a 0 -x {7.0 0.0 2 ------- null}
- -t 1.025152 -s 4 -d 1 -p ack -e 40 -c 0 -i 48 -a 0 -x {7.0 0.0 2 ------- null}
h -t 1.025152 -s 4 -d 1 -p ack -e 40 -c 0 -i 48 -a 0 -x {7.0 0.0 -1 ------- null}
r -t 1.025216 -s 8 -d 5 -p tcp -e 1540 -c 0 -i 31 -a 0 -x {8.0 5.0 13 ------- null}
+ -t 1.025216 -s 5 -d 8 -p ack -e 40 -c 0 -i 55 -a 0 -x {5.0 8.0 13 ------- null}
- -t 1.025216 -s 5 -d 8 -p ack -e 40 -c 0 -i 55 -a 0 -x {5.0 8.0 13 ------- null}
h -t 1.025216 -s 5 -d 8 -p ack -e 40 -c 0 -i 55 -a 0 -x {5.0 8.0 -1 ------- null}
r -t 1.025584 -s 3 -d 1 -p tcp -e 1540 -c 0 -i 39 -a 0 -x {3.0 5.1 6 ------- null}
+ -t 1.025584 -s 1 -d 5 -p tcp -e 1540 -c 0 -i 39 -a 0 -x {3.0 5.1 6 ------- null}
- -t 1.025584 -s 1 -d 5 -p tcp -e 1540 -c 0 -i 39 -a 0 -x {3.0 5.1 6 ------- null}
h -t 1.025584 -s 1 -d 5 -p tcp -e 1540 -c 0 -i 39 -a 0 -x {3.0 5.1 -1 ------- null}
- -t 1.02568 -s 8 -d 5 -p tcp -e 1540 -c 0 -i 37 -a 0 -x {8.0 5.0 16 ------- null}
h -t 1.02568 -s 8 -d 5 -p tcp -e 1540 -c 0 -i 37 -a 0 -x {8.0 5.0 -1 ------- null}
r -t 1.025952 -s 4 -d 1 -p ack -e 40 -c 0 -i 44 -a 0 -x {7.0 0.0 1 ------- null}
+ -t 1.025952 -s 1 -d 0 -p ack -e 40 -c 0 -i 44 -a 0 -x {7.0 0.0 1 ------- null}
- -t 1.025952 -s 1 -d 0 -p ack -e 40 -c 0 -i 44 -a 0 -x {7.0 0.0 1 ------- null}
h -t 1.025952 -s 1 -d 0 -p ack -e 40 -c 0 -i 44 -a 0 -x {7.0 0.0 -1 ------- null}
r -t 1.026016 -s 5 -d 8 -p ack -e 40 -c 0 -i 51 -a 0 -x {5.0 8.0 12 ------- null}
+ -t 1.026016 -s 8 -d 5 -p tcp -e 1540 -c 0 -i 56 -a 0 -x {8.0 5.0 25 ------- null}
+ -t 1.026016 -s 8 -d 5 -p tcp -e 1540 -c 0 -i 57 -a 0 -x {8.0 5.0 26 ------- null}
r -t 1.026352 -s 1 -d 5 -p tcp -e 1540 -c 0 -i 34 -a 0 -x {3.0 5.1 4 ------- null}
+ -t 1.026352 -s 5 -d 1 -p ack -e 40 -c 0 -i 58 -a 0 -x {5.1 3.0 4 ------- null}
- -t 1.026352 -s 5 -d 1 -p ack -e 40 -c 0 -i 58 -a 0 -x {5.1 3.0 4 ------- null}
h -t 1.026352 -s 5 -d 1 -p ack -e 40 -c 0 -i 58 -a 0 -x {5.1 3.0 -1 ------- null}
r -t 1.026448 -s 8 -d 5 -p tcp -e 1540 -c 0 -i 32 -a 0 -x {8.0 5.0 14 ------- null}
+ -t 1.026448 -s 5 -d 8 -p ack -e 40 -c 0 -i 59 -a 0 -x {5.0 8.0 14 ------- null}
- -t 1.026448 -s 5 -d 8 -p ack -e 40 -c 0 -i 59 -a 0 -x {5.0 8.0 14 ------- null}
h -t 1.026448 -s 5 -d 8 -p ack -e 40 -c 0 -i 59 -a 0 -x {5.0 8.0 -1 ------- null}
- -t 1.026912 -s 8 -d 5 -p tcp -e 1540 -c 0 -i 41 -a 0 -x {8.0 5.0 17 ------- null}
h -t 1.026912 -s 8 -d 5 -p tcp -e 1540 -c 0 -i 41 -a 0 -x {8.0 5.0 -1 ------- null}
r -t 1.027152 -s 5 -d 1 -p ack -e 40 -c 0 -i 54 -a 0 -x {5.1 3.0 3 ------- null}
+ -t 1.027152 -s 1 -d 3 -p ack -e 40 -c 0 -i 54 -a 0 -x {5.1 3.0 3 ------- null}
- -t 1.027152 -s 1 -d 3 -p ack -e 40 -c 0 -i 54 -a 0 -x {5.1 3.0 3 ------- null}
h -t 1.027152 -s 1 -d 3 -p ack -e 40 -c 0 -i 54 -a 0 -x {5.1 3.0 -1 ------- null}
r -t 1.027184 -s 4 -d 1 -p ack -e 40 -c 0 -i 48 -a 0 -x {7.0 0.0 2 ------- null}
+ -t 1.027184 -s 1 -d 0 -p ack -e 40 -c 0 -i 48 -a 0 -x {7.0 0.0 2 ------- null}
- -t 1.027184 -s 1 -d 0 -p ack -e 40 -c 0 -i 48 -a 0 -x {7.0 0.0 2 ------- null}
h -t 1.027184 -s 1 -d 0 -p ack -e 40 -c 0 -i 48 -a 0 -x {7.0 0.0 -1 ------- null}
r -t 1.027248 -s 5 -d 8 -p ack -e 40 -c 0 -i 55 -a 0 -x {5.0 8.0 13 ------- null}
+ -t 1.027248 -s 8 -d 5 -p tcp -e 1540 -c 0 -i 60 -a 0 -x {8.0 5.0 27 ------- null}
+ -t 1.027248 -s 8 -d 5 -p tcp -e 1540 -c 0 -i 61 -a 0 -x {8.0 5.0 28 ------- null}
r -t 1.027584 -s 1 -d 5 -p tcp -e 1540 -c 0 -i 38 -a 0 -x {3.0 5.1 5 ------- null}
+ -t 1.027584 -s 5 -d 1 -p ack -e 40 -c 0 -i 62 -a 0 -x {5.1 3.0 5 ------- null}
- -t 1.027584 -s 5 -d 1 -p ack -e 40 -c 0 -i 62 -a 0 -x {5.1 3.0 5 ------- null}
h -t 1.027584 -s 5 -d 1 -p ack -e 40 -c 0 -i 62 -a 0 -x {5.1 3.0 -1 ------- null}
r -t 1.02768 -s 8 -d 5 -p tcp -e 1540 -c 0 -i 36 -a 0 -x {8.0 5.0 15 ------- null}
+ -t 1.02768 -s 5 -d 8 -p ack -e 40 -c 0 -i 63 -a 0 -x {5.0 8.0 15 ------- null}
- -t 1.02768 -s 5 -d 8 -p ack -e 40 -c 0 -i 63 -a 0 -x {5.0 8.0 15 ------- null}
h -t 1.02768 -s 5 -d 8 -p ack -e 40 -c 0 -i 63 -a 0 -x {5.0 8.0 -1 ------- null}
r -t 1.027984 -s 1 -d 0 -p ack -e 40 -c 0 -i 44 -a 0 -x {7.0 0.0 1 ------- null}
+ -t 1.027984 -s 0 -d 1 -p tcp -e 1540 -c 0 -i 64 -a 0 -x {0.0 7.0 3 ------- null}
- -t 1.027984 -s 0 -d 1 -p tcp -e 1540 -c 0 -i 64 -a 0 -x {0.0 7.0 3 ------- null}
h -t 1.027984 -s 0 -d 1 -p tcp -e 1540 -c 0 -i 64 -a 0 -x {0.0 7.0 -1 ------- null}
+ -t 1.027984 -s 0 -d 1 -p tcp -e 1540 -c 0 -i 65 -a 0 -x {0.0 7.0 4 ------- null}
- -t 1.028144 -s 8 -d 5 -p tcp -e 1540 -c 0 -i 42 -a 0 -x {8.0 5.0 18 ------- null}
h -t 1.028144 -s 8 -d 5 -p tcp -e 1540 -c 0 -i 42 -a 0 -x {8.0 5.0 -1 ------- null}
r -t 1.028384 -s 5 -d 1 -p ack -e 40 -c 0 -i 58 -a 0 -x {5.1 3.0 4 ------- null}
+ -t 1.028384 -s 1 -d 3 -p ack -e 40 -c 0 -i 58 -a 0 -x {5.1 3.0 4 ------- null}
- -t 1.028384 -s 1 -d 3 -p ack -e 40 -c 0 -i 58 -a 0 -x {5.1 3.0 4 ------- null}
h -t 1.028384 -s 1 -d 3 -p ack -e 40 -c 0 -i 58 -a 0 -x {5.1 3.0 -1 ------- null}
r -t 1.02848 -s 5 -d 8 -p ack -e 40 -c 0 -i 59 -a 0 -x {5.0 8.0 14 ------- null}
+ -t 1.02848 -s 8 -d 5 -p tcp -e 1540 -c 0 -i 66 -a 0 -x {8.0 5.0 29 ------- null}
+ -t 1.02848 -s 8 -d 5 -p tcp -e 1540 -c 0 -i 67 -a 0 -x {8.0 5.0 30 ------- null}
r -t 1.028816 -s 1 -d 5 -p tcp -e 1540 -c 0 -i 39 -a 0 -x {3.0 5.1 6 ------- null}
+ -t 1.028816 -s 5 -d 1 -p ack -e 40 -c 0 -i 68 -a 0 -x {5.1 3.0 6 ------- null}
- -t 1.028816 -s 5 -d 1 -p ack -e 40 -c 0 -i 68 -a 0 -x {5.1 3.0 6 ------- null}
h -t 1.028816 -s 5 -d 1 -p ack -e 40 -c 0 -i 68 -a 0 -x {5.1 3.0 -1 ------- null}
r -t 1.028912 -s 8 -d 5 -p tcp -e 1540 -c 0 -i 37 -a 0 -x {8.0 5.0 16 ------- null}
+ -t 1.028912 -s 5 -d 8 -p ack -e 40 -c 0 -i 69 -a 0 -x {5.0 8.0 16 ------- null}
- -t 1.028912 -s 5 -d 8 -p ack -e 40 -c 0 -i 69 -a 0 -x {5.0 8.0 16 ------- null}
h -t 1.028912 -s 5 -d 8 -p ack -e 40 -c 0 -i 69 -a 0 -x {5.0 8.0 -1 ------- null}
r -t 1.029184 -s 1 -d 3 -p ack -e 40 -c 0 -i 54 -a 0 -x {5.1 3.0 3 ------- null}
+ -t 1.029184 -s 3 -d 1 -p tcp -e 1540 -c 0 -i 70 -a 0 -x {3.0 5.1 7 ------- null}
- -t 1.029184 -s 3 -d 1 -p tcp -e 1540 -c 0 -i 70 -a 0 -x {3.0 5.1 7 ------- null}
h -t 1.029184 -s 3 -d 1 -p tcp -e 1540 -c 0 -i 70 -a 0 -x {3.0 5.1 -1 ------- null}
+ -t 1.029184 -s 3 -d 1 -p tcp -e 1540 -c 0 -i 71 -a 0 -x {3.0 5.1 8 ------- null}
r -t 1.029216 -s 1 -d 0 -p ack -e 40 -c 0 -i 48 -a 0 -x {7.0 0.0 2 ------- null}
+ -t 1.029216 -s 0 -d 1 -p tcp -e 1540 -c 0 -i 72 -a 0 -x {0.0 7.0 5 ------- null}
+ -t 1.029216 -s 0 -d 1 -p tcp -e 1540 -c 0 -i 73 -a 0 -x {0.0 7.0 6 ------- null}
- -t 1.029216 -s 0 -d 1 -p tcp -e 1540 -c 0 -i 65 -a 0 -x {0.0 7.0 4 ------- null}
h -t 1.029216 -s 0 -d 1 -p tcp -e 1540 -c 0 -i 65 -a 0 -x {0.0 7.0 -1 ------- null}
- -t 1.029376 -s 8 -d 5 -p tcp -e 1540 -c 0 -i 45 -a 0 -x {8.0 5.0 19 ------- null}
h -t 1.029376 -s 8 -d 5 -p tcp -e 1540 -c 0 -i 45 -a 0 -x {8.0 5.0 -1 ------- null}
r -t 1.029616 -s 5 -d 1 -p ack -e 40 -c 0 -i 62 -a 0 -x {5.1 3.0 5 ------- null}
+ -t 1.029616 -s 1 -d 3 -p ack -e 40 -c 0 -i 62 -a 0 -x {5.1 3.0 5 ------- null}
- -t 1.029616 -s 1 -d 3 -p ack -e 40 -c 0 -i 62 -a 0 -x {5.1 3.0 5 ------- null}
h -t 1.029616 -s 1 -d 3 -p ack -e 40 -c 0 -i 62 -a 0 -x {5.1 3.0 -1 ------- null}
r -t 1.029712 -s 5 -d 8 -p ack -e 40 -c 0 -i 63 -a 0 -x {5.0 8.0 15 ------- null}
+ -t 1.029712 -s 8 -d 5 -p tcp -e 1540 -c 0 -i 74 -a 0 -x {8.0 5.0 31 ------- null}
+ -t 1.029712 -s 8 -d 5 -p tcp -e 1540 -c 0 -i 75 -a 0 -x {8.0 5.0 32 ------- null}
r -t 1.030144 -s 8 -d 5 -p tcp -e 1540 -c 0 -i 41 -a 0 -x {8.0 5.0 17 ------- null}
+ -t 1.030144 -s 5 -d 8 -p ack -e 40 -c 0 -i 76 -a 0 -x {5.0 8.0 17 ------- null}
- -t 1.030144 -s 5 -d 8 -p ack -e 40 -c 0 -i 76 -a 0 -x {5.0 8.0 17 ------- null}
h -t 1.030144 -s 5 -d 8 -p ack -e 40 -c 0 -i 76 -a 0 -x {5.0 8.0 -1 ------- null}